 Entering Gaussian System, Link 0=g16
 Initial command:
 /apps20/sw/gaussian/G16RevB.01/pgi/17.5/g16/l1.exe "/scratch/Gau-8719.inp" -scrdir="/scratch/"
 Entering Link 1 = /apps20/sw/gaussian/G16RevB.01/pgi/17.5/g16/l1.exe PID=      8738.
  
 Copyright (c) 1988-2017, Gaussian, Inc.  All Rights Reserved.
  
 This is part of the Gaussian(R) 16 program.  It is based on
 the Gaussian(R) 09 system (copyright 2009, Gaussian, Inc.),
 the Gaussian(R) 03 system (copyright 2003, Gaussian, Inc.),
 the Gaussian(R) 98 system (copyright 1998, Gaussian, Inc.),
 the Gaussian(R) 94 system (copyright 1995, Gaussian, Inc.),
 the Gaussian 92(TM) system (copyright 1992, Gaussian, Inc.),
 the Gaussian 90(TM) system (copyright 1990, Gaussian, Inc.),
 the Gaussian 88(TM) system (copyright 1988, Gaussian, Inc.),
 the Gaussian 86(TM) system (copyright 1986, Carnegie Mellon
 University), and the Gaussian 82(TM) system (copyright 1983,
 Carnegie Mellon University). Gaussian is a federally registered
 trademark of Gaussian, Inc.
  
 This software contains proprietary and confidential information,
 including trade secrets, belonging to Gaussian, Inc.
  
 This software is provided under written license and may be
 used, copied, transmitted, or stored only in accord with that
 written license.
  
 The following legend is applicable only to US Government
 contracts under FAR:
  
                    RESTRICTED RIGHTS LEGEND
  
 Use, reproduction and disclosure by the US Government is
 subject to restrictions as set forth in subparagraphs (a)
 and (c) of the Commercial Computer Software - Restricted
 Rights clause in FAR 52.227-19.
  
 Gaussian, Inc.
 340 Quinnipiac St., Bldg. 40, Wallingford CT 06492
  
  
 ---------------------------------------------------------------
 Warning -- This program may not be used in any manner that
 competes with the business of Gaussian, Inc. or will provide
 assistance to any competitor of Gaussian, Inc.  The licensee
 of this program is prohibited from giving any competitor of
 Gaussian, Inc. access to this program.  By using this program,
 the user acknowledges that Gaussian, Inc. is engaged in the
 business of creating and licensing software in the field of
 computational chemistry and represents and warrants to the
 licensee that it is not a competitor of Gaussian, Inc. and that
 it will not use this program in any manner prohibited above.
 ---------------------------------------------------------------
  

 Cite this work as:
 Gaussian 16, Revision B.01,
 M. J. Frisch, G. W. Trucks, H. B. Schlegel, G. E. Scuseria, 
 M. A. Robb, J. R. Cheeseman, G. Scalmani, V. Barone, 
 G. A. Petersson, H. Nakatsuji, X. Li, M. Caricato, A. V. Marenich, 
 J. Bloino, B. G. Janesko, R. Gomperts, B. Mennucci, H. P. Hratchian, 
 J. V. Ortiz, A. F. Izmaylov, J. L. Sonnenberg, D. Williams-Young, 
 F. Ding, F. Lipparini, F. Egidi, J. Goings, B. Peng, A. Petrone, 
 T. Henderson, D. Ranasinghe, V. G. Zakrzewski, J. Gao, N. Rega, 
 G. Zheng, W. Liang, M. Hada, M. Ehara, K. Toyota, R. Fukuda, 
 J. Hasegawa, M. Ishida, T. Nakajima, Y. Honda, O. Kitao, H. Nakai, 
 T. Vreven, K. Throssell, J. A. Montgomery, Jr., J. E. Peralta, 
 F. Ogliaro, M. J. Bearpark, J. J. Heyd, E. N. Brothers, K. N. Kudin, 
 V. N. Staroverov, T. A. Keith, R. Kobayashi, J. Normand, 
 K. Raghavachari, A. P. Rendell, J. C. Burant, S. S. Iyengar, 
 J. Tomasi, M. Cossi, J. M. Millam, M. Klene, C. Adamo, R. Cammi, 
 J. W. Ochterski, R. L. Martin, K. Morokuma, O. Farkas, 
 J. B. Foresman, and D. J. Fox, Gaussian, Inc., Wallingford CT, 2016.
 
 ******************************************
 Gaussian 16:  ES64L-G16RevB.01 20-Dec-2017
                20-Aug-2024 
 ******************************************
 -----------------------------------------------------------------
 #P pbepbe/6-31G scf(qc,maxcycle=100) freq opt(tight,maxcycle=100)
 -----------------------------------------------------------------
 1/6=100,7=10,18=20,19=15,26=3,38=1/1,3;
 2/9=110,12=2,17=6,18=5,40=1/2;
 3/5=1,6=6,11=2,25=1,30=1,71=1,74=1009/1,2,3;
 4//1;
 5/5=2,7=100,8=3,38=5/8;
 6/7=2,8=2,9=2,10=2,28=1/1;
 7//1,2,3,16;
 1/6=100,7=10,18=20,19=15,26=3/3(2);
 2/9=110/2;
 99//99;
 2/9=110/2;
 3/5=1,6=6,11=2,25=1,30=1,71=1,74=1009/1,2,3;
 4/5=5,16=3,69=1/1;
 5/5=2,7=100,8=3,38=5/8;
 7//1,2,3,16;
 1/6=100,7=10,18=20,19=15,26=3/3(-5);
 2/9=110/2;
 6/7=2,8=2,9=2,10=2,19=2,28=1/1;
 99/9=1/99;
 Leave Link    1 at Tue Aug 20 09:46:40 2024, MaxMem=           0 cpu:               0.0 elap:               0.1
 (Enter /apps20/sw/gaussian/G16RevB.01/pgi/17.5/g16/l101.exe)
 ------------------------------
 Gaussian input prepared by ASE
 ------------------------------
 Symbolic Z-matrix:
 Charge =  0 Multiplicity = 1
 C                     11.1148   8.63685   8.88693 
 C                     9.94662   9.5967    8.88693 
 O                     8.75654   8.80957   8.88693 
 H                     8.        9.41876   8.88693 
 H                     9.98918   10.24474   9.77387 
 H                     9.98918   10.24474   8. 
 H                     12.06251   9.18203   8.88693 
 H                     11.07522   8.        9.77281 
 H                     11.07522   8.        8.00105 
 
 ITRead=  0  0  0  0  0  0  0  0  0
 MicOpt= -1 -1 -1 -1 -1 -1 -1 -1 -1
 NAtoms=      9 NQM=        9 NQMF=       0 NMMI=      0 NMMIF=      0
                NMic=       0 NMicF=      0.
                    Isotopes and Nuclear Properties:
 (Nuclear quadrupole moments (NQMom) in fm**2, nuclear magnetic moments (NMagM)
  in nuclear magnetons)

  Atom         1           2           3           4           5           6           7           8           9
 IAtWgt=          12          12          16           1           1           1           1           1           1
 AtmWgt=  12.0000000  12.0000000  15.9949146   1.0078250   1.0078250   1.0078250   1.0078250   1.0078250   1.0078250
 NucSpn=           0           0           0           1           1           1           1           1           1
 AtZEff=  -0.0000000  -0.0000000  -0.0000000  -0.0000000  -0.0000000  -0.0000000  -0.0000000  -0.0000000  -0.0000000
 NQMom=    0.0000000   0.0000000   0.0000000   0.0000000   0.0000000   0.0000000   0.0000000   0.0000000   0.0000000
 NMagM=    0.0000000   0.0000000   0.0000000   2.7928460   2.7928460   2.7928460   2.7928460   2.7928460   2.7928460
 AtZNuc=   6.0000000   6.0000000   8.0000000   1.0000000   1.0000000   1.0000000   1.0000000   1.0000000   1.0000000
 Leave Link  101 at Tue Aug 20 09:46:40 2024, MaxMem=   104857600 cpu:               0.1 elap:               0.1
 (Enter /apps20/sw/gaussian/G16RevB.01/pgi/17.5/g16/l103.exe)

 GradGradGradGradGradGradGradGradGradGradGradGradGradGradGradGradGradGrad
 Berny optimization.
 Initialization pass.
                           ----------------------------
                           !    Initial Parameters    !
                           ! (Angstroms and Degrees)  !
 --------------------------                            --------------------------
 ! Name  Definition              Value          Derivative Info.                !
 --------------------------------------------------------------------------------
 ! R1    R(1,2)                  1.5119         estimate D2E/DX2                !
 ! R2    R(1,7)                  1.0933         estimate D2E/DX2                !
 ! R3    R(1,8)                  1.0918         estimate D2E/DX2                !
 ! R4    R(1,9)                  1.0918         estimate D2E/DX2                !
 ! R5    R(2,3)                  1.4268         estimate D2E/DX2                !
 ! R6    R(2,5)                  1.0993         estimate D2E/DX2                !
 ! R7    R(2,6)                  1.0993         estimate D2E/DX2                !
 ! R8    R(3,4)                  0.9713         estimate D2E/DX2                !
 ! A1    A(2,1,7)              110.6813         estimate D2E/DX2                !
 ! A2    A(2,1,8)              110.0177         estimate D2E/DX2                !
 ! A3    A(2,1,9)              110.0177         estimate D2E/DX2                !
 ! A4    A(7,1,8)              108.802          estimate D2E/DX2                !
 ! A5    A(7,1,9)              108.802          estimate D2E/DX2                !
 ! A6    A(8,1,9)              108.4712         estimate D2E/DX2                !
 ! A7    A(1,2,3)              107.1105         estimate D2E/DX2                !
 ! A8    A(1,2,5)              110.1415         estimate D2E/DX2                !
 ! A9    A(1,2,6)              110.1415         estimate D2E/DX2                !
 ! A10   A(3,2,5)              110.9469         estimate D2E/DX2                !
 ! A11   A(3,2,6)              110.9469         estimate D2E/DX2                !
 ! A12   A(5,2,6)              107.5743         estimate D2E/DX2                !
 ! A13   A(2,3,4)              107.6767         estimate D2E/DX2                !
 ! D1    D(7,1,2,3)            180.0            estimate D2E/DX2                !
 ! D2    D(7,1,2,5)            -59.2474         estimate D2E/DX2                !
 ! D3    D(7,1,2,6)             59.2474         estimate D2E/DX2                !
 ! D4    D(8,1,2,3)            -59.7232         estimate D2E/DX2                !
 ! D5    D(8,1,2,5)             61.0293         estimate D2E/DX2                !
 ! D6    D(8,1,2,6)            179.5242         estimate D2E/DX2                !
 ! D7    D(9,1,2,3)             59.7232         estimate D2E/DX2                !
 ! D8    D(9,1,2,5)           -179.5242         estimate D2E/DX2                !
 ! D9    D(9,1,2,6)            -61.0293         estimate D2E/DX2                !
 ! D10   D(1,2,3,4)            180.0            estimate D2E/DX2                !
 ! D11   D(5,2,3,4)             59.7599         estimate D2E/DX2                !
 ! D12   D(6,2,3,4)            -59.7599         estimate D2E/DX2                !
 --------------------------------------------------------------------------------
 Trust Radius=3.00D-01 FncErr=1.00D-07 GrdErr=1.00D-06 EigMax=2.50D+02 EigMin=1.00D-04
 Number of steps in this run=    100 maximum allowed number of steps=    100.
 GradGradGradGradGradGradGradGradGradGradGradGradGradGradGradGradGradGrad

 Leave Link  103 at Tue Aug 20 09:46:40 2024, MaxMem=   104857600 cpu:               0.0 elap:               0.0
 (Enter /apps20/sw/gaussian/G16RevB.01/pgi/17.5/g16/l202.exe)
                          Input orientation:                          
 ---------------------------------------------------------------------
 Center     Atomic      Atomic             Coordinates (Angstroms)
 Number     Number       Type             X           Y           Z
 ---------------------------------------------------------------------
      1          6           0       11.114804    8.636852    8.886933
      2          6           0        9.946623    9.596696    8.886933
      3          8           0        8.756540    8.809565    8.886933
      4          1           0        8.000000    9.418759    8.886933
      5          1           0        9.989180   10.244742    9.773866
      6          1           0        9.989180   10.244742    8.000000
      7          1           0       12.062514    9.182034    8.886933
      8          1           0       11.075222    8.000000    9.772814
      9          1           0       11.075222    8.000000    8.001052
 ---------------------------------------------------------------------
                    Distance matrix (angstroms):
                    1          2          3          4          5
     1  C    0.000000
     2  C    1.511935   0.000000
     3  O    2.364580   1.426840   0.000000
     4  H    3.211446   1.954739   0.971324   0.000000
     5  H    2.153831   1.099284   2.089446   2.329321   0.000000
     6  H    2.153831   1.099284   2.089446   2.329321   1.773866
     7  H    1.093333   2.156140   3.326890   4.069405   2.492932
     8  H    1.091757   2.146616   2.610836   3.500665   2.493663
     9  H    1.091757   2.146616   2.610836   3.500665   3.059612
                    6          7          8          9
     6  H    0.000000
     7  H    2.492932   0.000000
     8  H    3.059612   1.776720   0.000000
     9  H    2.493663   1.776720   1.771762   0.000000
 Stoichiometry    C2H6O
 Framework group  CS[SG(C2H2O),X(H4)]
 Deg. of freedom    13
 Full point group                 CS      NOp   2
 Largest Abelian subgroup         CS      NOp   2
 Largest concise Abelian subgroup CS      NOp   2
                         Standard orientation:                         
 ---------------------------------------------------------------------
 Center     Atomic      Atomic             Coordinates (Angstroms)
 Number     Number       Type             X           Y           Z
 ---------------------------------------------------------------------
      1          6           0        1.168181   -0.400382    0.000000
      2          6           0        0.000000    0.559462    0.000000
      3          8           0       -1.190083   -0.227669    0.000000
      4          1           0       -1.946623    0.381525    0.000000
      5          1           0        0.042557    1.207508    0.886933
      6          1           0        0.042557    1.207508   -0.886933
      7          1           0        2.115891    0.144800    0.000000
      8          1           0        1.128599   -1.037234    0.885881
      9          1           0        1.128599   -1.037234   -0.885881
 ---------------------------------------------------------------------
 Rotational constants (GHZ):          34.8177165           9.4666598           8.2088404
 Leave Link  202 at Tue Aug 20 09:46:40 2024, MaxMem=   104857600 cpu:               0.0 elap:               0.0
 (Enter /apps20/sw/gaussian/G16RevB.01/pgi/17.5/g16/l301.exe)
 Standard basis: 6-31G (6D, 7F)
 Ernie: Thresh=  0.10000D-02 Tol=  0.10000D-05 Strict=F.
 There are    29 symmetry adapted cartesian basis functions of A'  symmetry.
 There are    10 symmetry adapted cartesian basis functions of A"  symmetry.
 There are    29 symmetry adapted basis functions of A'  symmetry.
 There are    10 symmetry adapted basis functions of A"  symmetry.
    39 basis functions,    90 primitive gaussians,    39 cartesian basis functions
    13 alpha electrons       13 beta electrons
       nuclear repulsion energy        81.8333951614 Hartrees.
 IExCor= 1009 DFT=T Ex=PBE Corr=PBE ExCW=0 ScaHFX=  0.000000
 ScaDFX=  1.000000  1.000000  1.000000  1.000000 ScalE2=  1.000000  1.000000
 IRadAn=      5 IRanWt=     -1 IRanGd=            0 ICorTp=0 IEmpDi=  4
 NAtoms=    9 NActive=    9 NUniq=    7 SFac= 1.65D+00 NAtFMM=   60 NAOKFM=F Big=F
 Integral buffers will be    131072 words long.
 Raffenetti 2 integral format.
 Two-electron integral symmetry is turned on.
 Leave Link  301 at Tue Aug 20 09:46:40 2024, MaxMem=   104857600 cpu:               0.0 elap:               0.0
 (Enter /apps20/sw/gaussian/G16RevB.01/pgi/17.5/g16/l302.exe)
 NPDir=0 NMtPBC=     1 NCelOv=     1 NCel=       1 NClECP=     1 NCelD=      1
         NCelK=      1 NCelE2=     1 NClLst=     1 CellRange=     0.0.
 One-electron integrals computed using PRISM.
 One-electron integral symmetry used in STVInt
 NBasis=    39 RedAO= T EigKep=  7.98D-03  NBF=    29    10
 NBsUse=    39 1.00D-06 EigRej= -1.00D+00 NBFU=    29    10
 Precomputing XC quadrature grid using
 IXCGrd= 4 IRadAn=           5 IRanWt=          -1 IRanGd=           0 AccXCQ= 0.00D+00.
 Generated NRdTot=       0 NPtTot=           0 NUsed=           0 NTot=          32
 NSgBfM=    39    39    39    39    39 MxSgAt=     9 MxSgA2=     9.
 Leave Link  302 at Tue Aug 20 09:46:40 2024, MaxMem=   104857600 cpu:               0.1 elap:               0.1
 (Enter /apps20/sw/gaussian/G16RevB.01/pgi/17.5/g16/l303.exe)
 DipDrv:  MaxL=1.
 Leave Link  303 at Tue Aug 20 09:46:40 2024, MaxMem=   104857600 cpu:               0.0 elap:               0.0
 (Enter /apps20/sw/gaussian/G16RevB.01/pgi/17.5/g16/l401.exe)
 ExpMin= 1.61D-01 ExpMax= 5.48D+03 ExpMxC= 8.25D+02 IAcc=3 IRadAn=         5 AccDes= 0.00D+00
 Harris functional with IExCor= 1009 and IRadAn=       5 diagonalized for initial guess.
 HarFok:  IExCor= 1009 AccDes= 0.00D+00 IRadAn=         5 IDoV= 1 UseB2=F ITyADJ=14
 ICtDFT=  3500011 ScaDFX=  1.000000  1.000000  1.000000  1.000000
 FoFCou: FMM=F IPFlag=           0 FMFlag=      100000 FMFlg1=           0
         NFxFlg=           0 DoJE=T BraDBF=F KetDBF=T FulRan=T
         wScrn=  0.000000 ICntrl=       500 IOpCl=  0 I1Cent=   200000004 NGrid=           0
         NMat0=    1 NMatS0=      1 NMatT0=    0 NMatD0=    1 NMtDS0=    0 NMtDT0=    0
 Petite list used in FoFCou.
 Harris En= -154.890438771238    
 JPrj=0 DoOrth=F DoCkMO=F.
 Initial guess orbital symmetries:
       Occupied  (A') (A') (A') (A') (A') (A') (A') (A") (A') (A')
                 (A") (A') (A")
       Virtual   (A') (A') (A") (A') (A') (A') (A') (A") (A') (A')
                 (A") (A') (A') (A") (A') (A") (A') (A') (A") (A')
                 (A') (A') (A") (A') (A') (A')
 The electronic state of the initial guess is 1-A'.
 Leave Link  401 at Tue Aug 20 09:46:41 2024, MaxMem=   104857600 cpu:               0.4 elap:               0.4
 (Enter /apps20/sw/gaussian/G16RevB.01/pgi/17.5/g16/l508.exe)
 Keep J ints in memory in symmetry-blocked form, NReq=1172130.
 FoFCou: FMM=F IPFlag=           0 FMFlag=           0 FMFlg1=           0
         NFxFlg=           0 DoJE=F BraDBF=F KetDBF=F FulRan=T
         wScrn=  0.000000 ICntrl=       600 IOpCl=  0 I1Cent=           0 NGrid=           0
         NMat0=    1 NMatS0=    780 NMatT0=    0 NMatD0=    1 NMtDS0=    0 NMtDT0=    0
 Petite list used in FoFCou.
 Tight linear equation convergence will be used.
 RPBE-PBE wavefunction.
 Quadratic Convergence SCF Method.
 Line search only if initial step raises energy.
 Iteration   1 EE= -154.676867074946                                    Grad=4.685D-01 Max rot=    5.2420 deg.
 Gradient too large for Newton-Raphson -- use scaled steepest descent instead.
 Alpha Gap=     0.186 HL deriv= 4.36D-17
     ILin= 1 X=0.000D+00 Y=-1.546768670749D+02 DE= 0.00D+00 F= -6.20D-01
     ILin= 2 X=3.000D-01 Y=-1.547835630244D+02 DE=-1.07D-01 F= -8.79D-02 OKLS=F
     ILin= 3 X=4.000D-01 Y=-1.547833030532D+02 DE=-1.06D-01 F=  9.32D-02
     An  expanding polynomial of degree  3 produced  0.3485
 Iteration   2 EE= -154.785698786833     Delta-E=       -0.108831711887 Grad=7.490D-02 Max rot=    0.6243 deg.
 Gradient too large for Newton-Raphson -- use scaled steepest descent instead.
 Alpha Gap=     0.269 HL deriv= 5.08D-17
     ILin= 1 X=0.000D+00 Y=-1.547856987868D+02 DE= 0.00D+00 F= -1.08D-02
     ILin= 2 X=3.000D-01 Y=-1.547880455316D+02 DE=-2.35D-03 F= -4.86D-03 OKLS=F
     ILin= 3 X=6.000D-01 Y=-1.547886145072D+02 DE=-2.92D-03 F=  1.07D-03
     Accept linear search using points  2 and  3.
     An  expanding polynomial of degree  3 produced  0.4443
 Iteration   3 EE= -154.788541003304     Delta-E=       -0.002842216471 Grad=3.383D-02 Max rot=    0.4011 deg.
 Gradient too large for Newton-Raphson -- use scaled steepest descent instead.
 Alpha Gap=     0.261 HL deriv= 1.19D-16
     ILin= 1 X=0.000D+00 Y=-1.547885410033D+02 DE= 0.00D+00 F= -2.01D-03
     ILin= 2 X=4.000D-01 Y=-1.547890831955D+02 DE=-5.42D-04 F= -6.98D-04 OKLS=F
     ILin= 3 X=8.000D-01 Y=-1.547890992337D+02 DE=-5.58D-04 F=  6.19D-04
     Accept linear search using points  2 and  3.
     An  expanding polynomial of degree  3 produced  0.6013
 Iteration   4 EE= -154.789157132061     Delta-E=       -0.000616128757 Grad=1.635D-02 Max rot=    0.1625 deg.
 Gradient too large for Newton-Raphson -- use scaled steepest descent instead.
 Alpha Gap=     0.267 HL deriv= 1.04D-16
     ILin= 1 X=0.000D+00 Y=-1.547891571321D+02 DE= 0.00D+00 F= -5.01D-04
     ILin= 2 X=5.000D-01 Y=-1.547892484696D+02 DE=-9.13D-05 F=  1.35D-04 OKLS=T
     Accept linear search using points  1 and  2.
     An  expanding polynomial of degree  2 produced  0.2915
 Iteration   5 EE= -154.789249051811     Delta-E=       -0.000091919750 Grad=6.874D-03 Max rot=    0.0652 deg.
 QCNR:  CnvC1=2.60D-09 CnvC2=2.60D-08
 LinEq1:  Iter=  0 NonCon=     1 RMS=2.36D-04 Max=1.16D-03 NDo=     1
 AX will form     1 AO Fock derivatives at one time.
 LinEq1:  Iter=  1 NonCon=     1 RMS=9.91D-05 Max=5.79D-04 NDo=     1
 LinEq1:  Iter=  2 NonCon=     1 RMS=3.72D-05 Max=1.95D-04 NDo=     1
 LinEq1:  Iter=  3 NonCon=     1 RMS=2.26D-05 Max=1.81D-04 NDo=     1
 LinEq1:  Iter=  4 NonCon=     1 RMS=6.37D-06 Max=4.23D-05 NDo=     1
 LinEq1:  Iter=  5 NonCon=     1 RMS=8.10D-07 Max=5.39D-06 NDo=     1
 LinEq1:  Iter=  6 NonCon=     1 RMS=2.66D-07 Max=1.63D-06 NDo=     1
 LinEq1:  Iter=  7 NonCon=     1 RMS=1.24D-07 Max=1.08D-06 NDo=     1
 LinEq1:  Iter=  8 NonCon=     1 RMS=2.30D-08 Max=1.20D-07 NDo=     1
 LinEq1:  Iter=  9 NonCon=     1 RMS=3.33D-09 Max=1.63D-08 NDo=     1
 LinEq1:  Iter= 10 NonCon=     0 RMS=3.14D-10 Max=1.72D-09 NDo=     1
 Linear equations converged to 2.600D-09 2.600D-08 after    10 iterations.
 Angle between quadratic step and gradient=  34.69 degrees.
     ILin= 1 X=0.000D+00 Y=-1.547892490518D+02 DE= 0.00D+00 F= -6.07D-05
     ILin= 2 X=1.000D+00 Y=-1.547892793960D+02 DE=-3.03D-05 F=  9.37D-09 OKLS=T
     Accept linear search using points  1 and  2.
     An  expanding polynomial of degree  2 produced  0.9998
     Minimum is close to point  2 DX= -1.54D-04 DF= -7.11D-13 DXR=  1.54D-04 DFR=  2.34D-08 which will be used.
 Iteration   6 EE= -154.789279395978     Delta-E=       -0.000030344167 Grad=5.333D-06 Max rot=    0.0001 deg.
 QCNR:  CnvC1=5.33D-11 CnvC2=5.33D-10
 LinEq1:  Iter=  0 NonCon=     1 RMS=3.26D-07 Max=2.37D-06 NDo=     1
 LinEq1:  Iter=  1 NonCon=     1 RMS=1.46D-07 Max=8.42D-07 NDo=     1
 LinEq1:  Iter=  2 NonCon=     1 RMS=1.03D-07 Max=5.77D-07 NDo=     1
 LinEq1:  Iter=  3 NonCon=     1 RMS=2.58D-08 Max=1.22D-07 NDo=     1
 LinEq1:  Iter=  4 NonCon=     1 RMS=5.11D-09 Max=2.36D-08 NDo=     1
 LinEq1:  Iter=  5 NonCon=     1 RMS=1.85D-09 Max=1.04D-08 NDo=     1
 LinEq1:  Iter=  6 NonCon=     1 RMS=5.92D-10 Max=3.01D-09 NDo=     1
 LinEq1:  Iter=  7 NonCon=     1 RMS=1.09D-10 Max=5.52D-10 NDo=     1
 LinEq1:  Iter=  8 NonCon=     0 RMS=1.01D-11 Max=5.69D-11 NDo=     1
 Linear equations converged to 5.333D-11 5.333D-10 after     8 iterations.
 Angle between quadratic step and gradient=  36.05 degrees.
     ILin= 1 X=0.000D+00 Y=-1.547892793960D+02 DE= 0.00D+00 F= -3.56D-11
     ILin= 2 X=1.000D+00 Y=-1.547892793960D+02 DE=-1.85D-11
 Iteration   7 EE= -154.789279395996     Delta-E=       -0.000000000018 Grad=7.579D-12 Max rot=    0.0000 deg.
 Rotation gradient small -- convergence achieved.
 Orbital symmetries in SymMO:
    1=1    2=1    3=1    4=1    5=1    6=1    7=1    8=2    9=1   10=1
   11=2   12=1   13=2   14=1   15=1   16=2   17=1   18=1   19=1   20=2
   21=1   22=1   23=1   24=2   25=1   26=1   27=2   28=1   29=2   30=1
   31=1   32=1   33=2   34=1   35=1   36=2   37=1   38=1   39=1
 SCF Done:  E(RPBE-PBE) =  -154.789279396     a.u. after    7 cycles
            Convg  =    0.7579D-11                    32 Fock formations.
              S**2 =  0.0000                  -V/T =  2.0043
 Leave Link  508 at Tue Aug 20 09:47:02 2024, MaxMem=   104857600 cpu:              21.1 elap:              21.2
 (Enter /apps20/sw/gaussian/G16RevB.01/pgi/17.5/g16/l601.exe)
 Copying SCF densities to generalized density rwf, IOpCl= 0 IROHF=0.

 **********************************************************************

            Population analysis using the SCF Density.

 **********************************************************************

 Orbital symmetries:
       Occupied  (A') (A') (A') (A') (A') (A') (A') (A") (A') (A')
                 (A") (A') (A")
       Virtual   (A') (A') (A") (A') (A') (A') (A") (A') (A') (A')
                 (A") (A') (A') (A") (A') (A") (A') (A') (A') (A")
                 (A') (A') (A") (A') (A') (A')
 The electronic state is 1-A'.
 Alpha  occ. eigenvalues --  -18.75462  -9.93122  -9.87213  -0.93336  -0.67759
 Alpha  occ. eigenvalues --   -0.54660  -0.46187  -0.41191  -0.34563  -0.33263
 Alpha  occ. eigenvalues --   -0.31221  -0.26850  -0.20469
 Alpha virt. eigenvalues --    0.04681   0.09424   0.13053   0.13756   0.14948
 Alpha virt. eigenvalues --    0.17216   0.17397   0.20587   0.51139   0.53468
 Alpha virt. eigenvalues --    0.54520   0.57602   0.63520   0.65195   0.78998
 Alpha virt. eigenvalues --    0.83740   0.84356   0.89450   0.90282   0.91199
 Alpha virt. eigenvalues --    1.00272   1.01942   1.03374   1.18220   1.41850
 Alpha virt. eigenvalues --    1.73973
          Condensed to atoms (all electrons):
               1          2          3          4          5          6
     1  C    5.197735   0.315596  -0.070926   0.009300  -0.047058  -0.047058
     2  C    0.315596   4.953382   0.228372  -0.032125   0.356875   0.356875
     3  O   -0.070926   0.228372   8.275672   0.226042  -0.049121  -0.049121
     4  H    0.009300  -0.032125   0.226042   0.453534  -0.004375  -0.004375
     5  H   -0.047058   0.356875  -0.049121  -0.004375   0.676606  -0.065465
     6  H   -0.047058   0.356875  -0.049121  -0.004375  -0.065465   0.676606
     7  H    0.346800  -0.026179   0.003487  -0.000398   0.000373   0.000373
     8  H    0.370732  -0.033420   0.003175  -0.000068  -0.009055   0.006749
     9  H    0.370732  -0.033420   0.003175  -0.000068   0.006749  -0.009055
               7          8          9
     1  C    0.346800   0.370732   0.370732
     2  C   -0.026179  -0.033420  -0.033420
     3  O    0.003487   0.003175   0.003175
     4  H   -0.000398  -0.000068  -0.000068
     5  H    0.000373  -0.009055   0.006749
     6  H    0.000373   0.006749  -0.009055
     7  H    0.587344  -0.028153  -0.028153
     8  H   -0.028153   0.553876  -0.032131
     9  H   -0.028153  -0.032131   0.553876
 Mulliken charges:
               1
     1  C   -0.445855
     2  C   -0.085957
     3  O   -0.570755
     4  H    0.352534
     5  H    0.134471
     6  H    0.134471
     7  H    0.144505
     8  H    0.168294
     9  H    0.168294
 Sum of Mulliken charges =   0.00000
 Mulliken charges with hydrogens summed into heavy atoms:
               1
     1  C    0.035237
     2  C    0.182984
     3  O   -0.218221
 Electronic spatial extent (au):  <R**2>=            192.4096
 Charge=              0.0000 electrons
 Dipole moment (field-independent basis, Debye):
    X=             -0.0212    Y=              1.7942    Z=             -0.0000  Tot=              1.7944
 Quadrupole moment (field-independent basis, Debye-Ang):
   XX=            -17.2613   YY=            -19.9513   ZZ=            -20.0068
   XY=             -2.6868   XZ=              0.0000   YZ=             -0.0000
 Traceless Quadrupole moment (field-independent basis, Debye-Ang):
   XX=              1.8118   YY=             -0.8782   ZZ=             -0.9337
   XY=             -2.6868   XZ=              0.0000   YZ=             -0.0000
 Octapole moment (field-independent basis, Debye-Ang**2):
  XXX=            -13.9906  YYY=             -0.3329  ZZZ=              0.0000  XYY=             -1.5905
  XXY=              4.4182  XXZ=              0.0000  XZZ=             -1.3750  YZZ=             -0.3227
  YYZ=              0.0000  XYZ=             -0.0000
 Hexadecapole moment (field-independent basis, Debye-Ang**3):
 XXXX=           -128.2381 YYYY=            -59.6225 ZZZZ=            -32.3932 XXXY=              3.3913
 XXXZ=              0.0000 YYYX=              7.6709 YYYZ=             -0.0000 ZZZX=             -0.0000
 ZZZY=             -0.0000 XXYY=            -34.7548 XXZZ=            -31.6127 YYZZ=            -14.0668
 XXYZ=             -0.0000 YYXZ=              0.0000 ZZXY=              1.8155
 N-N= 8.183339516142D+01 E-N=-5.259032425349D+02  KE= 1.541226383881D+02
 Symmetry A'   KE= 1.455125828481D+02
 Symmetry A"   KE= 8.610055539954D+00
 No NMR shielding tensors so no spin-rotation constants.
 Leave Link  601 at Tue Aug 20 09:47:02 2024, MaxMem=   104857600 cpu:               0.1 elap:               0.0
 (Enter /apps20/sw/gaussian/G16RevB.01/pgi/17.5/g16/l701.exe)
 ... and contract with generalized density number  0.
 Compute integral first derivatives.
 Leave Link  701 at Tue Aug 20 09:47:02 2024, MaxMem=   104857600 cpu:               0.0 elap:               0.1
 (Enter /apps20/sw/gaussian/G16RevB.01/pgi/17.5/g16/l702.exe)
 L702 exits ... SP integral derivatives will be done elsewhere.
 Leave Link  702 at Tue Aug 20 09:47:02 2024, MaxMem=   104857600 cpu:               0.0 elap:               0.0
 (Enter /apps20/sw/gaussian/G16RevB.01/pgi/17.5/g16/l703.exe)
 Integral derivatives from FoFJK, PRISM(SPDF).
 Compute integral first derivatives, UseDBF=F ICtDFT=           0.
 Calling FoFJK, ICntrl=      2527 FMM=F ISym2X=1 I1Cent= 0 IOpClX= 0 NMat=1 NMatS=1 NMatT=0.
 FoFJK:  IHMeth= 1 ICntrl=    2527 DoSepK=F KAlg= 0 I1Cent=           0 FoldK=F
 IRaf=         0 NMat=       1 IRICut=       1 DoRegI=T DoRafI=F ISym2E= 1 IDoP0=0 IntGTp=1.
 FoFCou: FMM=F IPFlag=           0 FMFlag=      100000 FMFlg1=         800
         NFxFlg=           0 DoJE=F BraDBF=F KetDBF=F FulRan=T
         wScrn=  0.000000 ICntrl=      2527 IOpCl=  0 I1Cent=           0 NGrid=           0
         NMat0=    1 NMatS0=      1 NMatT0=    0 NMatD0=    1 NMtDS0=    0 NMtDT0=    0
 Petite list used in FoFCou.
 Leave Link  703 at Tue Aug 20 09:47:03 2024, MaxMem=   104857600 cpu:               0.7 elap:               0.7
 (Enter /apps20/sw/gaussian/G16RevB.01/pgi/17.5/g16/l716.exe)
 Dipole        =-8.34603580D-03 7.05909774D-01 0.00000000D+00
 ***** Axes restored to original set *****
 -------------------------------------------------------------------
 Center     Atomic                   Forces (Hartrees/Bohr)
 Number     Number              X              Y              Z
 -------------------------------------------------------------------
      1        6           0.000795795    0.002249351   -0.000000000
      2        6           0.013617741    0.004420591   -0.000000000
      3        8          -0.008716544   -0.017077817   -0.000000000
      4        1          -0.015075424    0.005670321    0.000000000
      5        1           0.001675177    0.005410029    0.005930482
      6        1           0.001675177    0.005410029   -0.005930482
      7        1           0.005869769    0.002796224   -0.000000000
      8        1           0.000079155   -0.004439364    0.005356794
      9        1           0.000079155   -0.004439364   -0.005356794
 -------------------------------------------------------------------
 Cartesian Forces:  Max     0.017077817 RMS     0.006415579
 Leave Link  716 at Tue Aug 20 09:47:03 2024, MaxMem=   104857600 cpu:               0.0 elap:               0.0
 (Enter /apps20/sw/gaussian/G16RevB.01/pgi/17.5/g16/l103.exe)

 GradGradGradGradGradGradGradGradGradGradGradGradGradGradGradGradGradGrad
 Berny optimization.
 FormGI is forming the generalized inverse of G from B-inverse, IUseBI=4.
 Internal  Forces:  Max     0.026136553 RMS     0.006370490
 Search for a local minimum.
 Step number   1 out of a maximum of  100
 All quantities printed in internal units (Hartrees-Bohrs-Radians)
 RMS Force = .63705D-02 SwitMx=.10000D-02 MixMth= 1
 Mixed Optimization -- RFO/linear search
 Second derivative matrix not updated -- first step.
 ITU=  0
     Eigenvalues ---    0.00608   0.01337   0.05506   0.05778   0.05867
     Eigenvalues ---    0.06045   0.11005   0.13571   0.16000   0.16000
     Eigenvalues ---    0.16000   0.16000   0.21944   0.31157   0.33761
     Eigenvalues ---    0.33761   0.34430   0.34610   0.34610   0.41447
     Eigenvalues ---    0.53107
 RFO step:  Lambda=-3.66167000D-03 EMin= 6.08070755D-03
 Linear search not attempted -- first point.
 Iteration  1 RMS(Cart)=  0.03242705 RMS(Int)=  0.00038703
 Iteration  2 RMS(Cart)=  0.00032248 RMS(Int)=  0.00003927
 Iteration  3 RMS(Cart)=  0.00000025 RMS(Int)=  0.00003927
 ITry= 1 IFail=0 DXMaxC= 1.35D-01 DCOld= 1.00D+10 DXMaxT= 3.00D-01 DXLimC= 3.00D+00 Rises=F
 ClnCor:  largest displacement from symmetrization is 3.62D-11 for atom     9.
 Variable       Old X    -DE/DX   Delta X   Delta X   Delta X     New X
                                 (Linear)    (Quad)   (Total)
    R1        2.85714   0.00771   0.00000   0.02445   0.02445   2.88159
    R2        2.06610   0.00648   0.00000   0.01863   0.01863   2.08473
    R3        2.06312   0.00693   0.00000   0.01982   0.01982   2.08294
    R4        2.06312   0.00693   0.00000   0.01982   0.01982   2.08294
    R5        2.69634   0.02614   0.00000   0.06251   0.06251   2.75885
    R6        2.07735   0.00804   0.00000   0.02356   0.02356   2.10090
    R7        2.07735   0.00804   0.00000   0.02356   0.02356   2.10090
    R8        1.83554   0.01530   0.00000   0.02861   0.02861   1.86415
    A1        1.93175   0.00054   0.00000   0.00390   0.00390   1.93565
    A2        1.92017   0.00052   0.00000   0.00290   0.00289   1.92306
    A3        1.92017   0.00052   0.00000   0.00290   0.00289   1.92306
    A4        1.89895  -0.00048   0.00000  -0.00238  -0.00239   1.89656
    A5        1.89895  -0.00048   0.00000  -0.00238  -0.00239   1.89656
    A6        1.89318  -0.00067   0.00000  -0.00524  -0.00524   1.88794
    A7        1.86943   0.00118   0.00000   0.00807   0.00808   1.87751
    A8        1.92233  -0.00104   0.00000  -0.00877  -0.00885   1.91348
    A9        1.92233  -0.00104   0.00000  -0.00877  -0.00885   1.91348
   A10        1.93639   0.00055   0.00000   0.00943   0.00946   1.94584
   A11        1.93639   0.00055   0.00000   0.00943   0.00946   1.94584
   A12        1.87753  -0.00023   0.00000  -0.00956  -0.00971   1.86782
   A13        1.87931   0.00925   0.00000   0.05650   0.05650   1.93582
    D1        3.14159   0.00000   0.00000   0.00000   0.00000   3.14159
    D2       -1.03406   0.00078   0.00000   0.01129   0.01124  -1.02282
    D3        1.03406  -0.00078   0.00000  -0.01129  -0.01124   1.02282
    D4       -1.04237   0.00009   0.00000   0.00142   0.00142  -1.04094
    D5        1.06516   0.00087   0.00000   0.01271   0.01266   1.07783
    D6        3.13329  -0.00069   0.00000  -0.00987  -0.00982   3.12347
    D7        1.04237  -0.00009   0.00000  -0.00142  -0.00142   1.04094
    D8       -3.13329   0.00069   0.00000   0.00987   0.00982  -3.12347
    D9       -1.06516  -0.00087   0.00000  -0.01271  -0.01266  -1.07783
   D10        3.14159  -0.00000   0.00000  -0.00000   0.00000   3.14159
   D11        1.04301   0.00022   0.00000   0.00019   0.00017   1.04318
   D12       -1.04301  -0.00022   0.00000  -0.00019  -0.00017  -1.04318
         Item               Value     Threshold  Converged?
 Maximum Force            0.026137     0.000015     NO 
 RMS     Force            0.006370     0.000010     NO 
 Maximum Displacement     0.135004     0.000060     NO 
 RMS     Displacement     0.032493     0.000040     NO 
 Predicted change in Energy=-1.852457D-03
 Lowest energy point so far.  Saving SCF results.
 GradGradGradGradGradGradGradGradGradGradGradGradGradGradGradGradGradGrad

 Leave Link  103 at Tue Aug 20 09:47:03 2024, MaxMem=   104857600 cpu:               0.0 elap:               0.0
 (Enter /apps20/sw/gaussian/G16RevB.01/pgi/17.5/g16/l202.exe)
                          Input orientation:                          
 ---------------------------------------------------------------------
 Center     Atomic      Atomic             Coordinates (Angstroms)
 Number     Number       Type             X           Y           Z
 ---------------------------------------------------------------------
      1          6           0       11.126364    8.634477    8.886933
      2          6           0        9.950607    9.605470    8.886933
      3          8           0        8.724486    8.813012    8.886933
      4          1           0        7.928559    9.395774    8.886933
      5          1           0       10.009927   10.263955    9.780725
      6          1           0       10.009927   10.263955    7.993141
      7          1           0       12.086115    9.178452    8.886933
      8          1           0       11.086651    7.989147    9.779636
      9          1           0       11.086651    7.989147    7.994230
 ---------------------------------------------------------------------
                    Distance matrix (angstroms):
                    1          2          3          4          5
     1  C    0.000000
     2  C    1.524871   0.000000
     3  O    2.408505   1.459918   0.000000
     4  H    3.287177   2.032891   0.986463   0.000000
     5  H    2.168062   1.111749   2.134586   2.425838   0.000000
     6  H    2.168062   1.111749   2.134586   2.425838   1.787584
     7  H    1.103191   2.177783   3.381434   4.163232   2.507536
     8  H    1.102247   2.167952   2.656219   3.570583   2.516762
     9  H    1.102247   2.167952   2.656219   3.570583   3.086366
                    6          7          8          9
     6  H    0.000000
     7  H    2.507536   0.000000
     8  H    3.086366   1.791730   0.000000
     9  H    2.516762   1.791730   1.785407   0.000000
 Stoichiometry    C2H6O
 Framework group  CS[SG(C2H2O),X(H4)]
 Deg. of freedom    13
 Full point group                 CS      NOp   2
 RotChk:  IX=0 Diff= 2.40D-02
 Largest Abelian subgroup         CS      NOp   2
 Largest concise Abelian subgroup CS      NOp   2
                         Standard orientation:                         
 ---------------------------------------------------------------------
 Center     Atomic      Atomic             Coordinates (Angstroms)
 Number     Number       Type             X           Y           Z
 ---------------------------------------------------------------------
      1          6           0        1.192094   -0.384706    0.000000
      2          6           0        0.000000    0.566159    0.000000
      3          8           0       -1.212473   -0.247027    0.000000
      4          1           0       -2.018190    0.322120    0.000000
      5          1           0        0.048118    1.225557    0.893792
      6          1           0        0.048118    1.225557   -0.893792
      7          1           0        2.142459    0.175505    0.000000
      8          1           0        1.163357   -1.030619    0.892703
      9          1           0        1.163357   -1.030619   -0.892703
 ---------------------------------------------------------------------
 Rotational constants (GHZ):          34.0868468           9.1247967           7.9239874
 Leave Link  202 at Tue Aug 20 09:47:03 2024, MaxMem=   104857600 cpu:               0.0 elap:               0.0
 (Enter /apps20/sw/gaussian/G16RevB.01/pgi/17.5/g16/l301.exe)
 Standard basis: 6-31G (6D, 7F)
 Ernie: Thresh=  0.10000D-02 Tol=  0.10000D-05 Strict=F.
 There are    29 symmetry adapted cartesian basis functions of A'  symmetry.
 There are    10 symmetry adapted cartesian basis functions of A"  symmetry.
 There are    29 symmetry adapted basis functions of A'  symmetry.
 There are    10 symmetry adapted basis functions of A"  symmetry.
    39 basis functions,    90 primitive gaussians,    39 cartesian basis functions
    13 alpha electrons       13 beta electrons
       nuclear repulsion energy        80.5584826943 Hartrees.
 IExCor= 1009 DFT=T Ex=PBE Corr=PBE ExCW=0 ScaHFX=  0.000000
 ScaDFX=  1.000000  1.000000  1.000000  1.000000 ScalE2=  1.000000  1.000000
 IRadAn=      5 IRanWt=     -1 IRanGd=            0 ICorTp=0 IEmpDi=  4
 NAtoms=    9 NActive=    9 NUniq=    7 SFac= 1.65D+00 NAtFMM=   60 NAOKFM=F Big=F
 Integral buffers will be    131072 words long.
 Raffenetti 2 integral format.
 Two-electron integral symmetry is turned on.
 Leave Link  301 at Tue Aug 20 09:47:03 2024, MaxMem=   104857600 cpu:               0.0 elap:               0.0
 (Enter /apps20/sw/gaussian/G16RevB.01/pgi/17.5/g16/l302.exe)
 NPDir=0 NMtPBC=     1 NCelOv=     1 NCel=       1 NClECP=     1 NCelD=      1
         NCelK=      1 NCelE2=     1 NClLst=     1 CellRange=     0.0.
 One-electron integrals computed using PRISM.
 One-electron integral symmetry used in STVInt
 NBasis=    39 RedAO= T EigKep=  8.53D-03  NBF=    29    10
 NBsUse=    39 1.00D-06 EigRej= -1.00D+00 NBFU=    29    10
 Precomputing XC quadrature grid using
 IXCGrd= 4 IRadAn=           5 IRanWt=          -1 IRanGd=           0 AccXCQ= 0.00D+00.
 Generated NRdTot=       0 NPtTot=           0 NUsed=           0 NTot=          32
 NSgBfM=    39    39    39    39    39 MxSgAt=     9 MxSgA2=     9.
 Leave Link  302 at Tue Aug 20 09:47:03 2024, MaxMem=   104857600 cpu:               0.1 elap:               0.1
 (Enter /apps20/sw/gaussian/G16RevB.01/pgi/17.5/g16/l303.exe)
 DipDrv:  MaxL=1.
 Leave Link  303 at Tue Aug 20 09:47:03 2024, MaxMem=   104857600 cpu:               0.0 elap:               0.0
 (Enter /apps20/sw/gaussian/G16RevB.01/pgi/17.5/g16/l401.exe)
 Initial guess from the checkpoint file:  "/scratch/Gau-8738.chk"
 B after Tr=     0.000000   -0.000000   -0.000000
         Rot=    0.999972   -0.000000    0.000000   -0.007466 Ang=  -0.86 deg.
 Guess basis will be translated and rotated to current coordinates.
 JPrj=2 DoOrth=T DoCkMO=T.
 Initial guess orbital symmetries:
       Occupied  (A') (A') (A') (A') (A') (A') (A') (A") (A') (A')
                 (A") (A') (A")
       Virtual   (A') (A') (A") (A') (A') (A') (A") (A') (A') (A')
                 (A") (A') (A') (A") (A') (A") (A') (A') (A') (A")
                 (A') (A') (A") (A') (A') (A')
 The electronic state of the initial guess is 1-A'.
 Generating alternative initial guess.
 ExpMin= 1.61D-01 ExpMax= 5.48D+03 ExpMxC= 8.25D+02 IAcc=3 IRadAn=         5 AccDes= 0.00D+00
 Harris functional with IExCor= 1009 and IRadAn=       5 diagonalized for initial guess.
 HarFok:  IExCor= 1009 AccDes= 0.00D+00 IRadAn=         5 IDoV= 1 UseB2=F ITyADJ=14
 ICtDFT=  3500011 ScaDFX=  1.000000  1.000000  1.000000  1.000000
 FoFCou: FMM=F IPFlag=           0 FMFlag=      100000 FMFlg1=           0
         NFxFlg=           0 DoJE=T BraDBF=F KetDBF=T FulRan=T
         wScrn=  0.000000 ICntrl=       500 IOpCl=  0 I1Cent=   200000004 NGrid=           0
         NMat0=    1 NMatS0=      1 NMatT0=    0 NMatD0=    1 NMtDS0=    0 NMtDT0=    0
 Petite list used in FoFCou.
 Harris En= -154.886345348219    
 Leave Link  401 at Tue Aug 20 09:47:04 2024, MaxMem=   104857600 cpu:               0.4 elap:               0.4
 (Enter /apps20/sw/gaussian/G16RevB.01/pgi/17.5/g16/l508.exe)
 Keep J ints in memory in symmetry-blocked form, NReq=1172130.
 FoFCou: FMM=F IPFlag=           0 FMFlag=           0 FMFlg1=           0
         NFxFlg=           0 DoJE=F BraDBF=F KetDBF=F FulRan=T
         wScrn=  0.000000 ICntrl=       600 IOpCl=  0 I1Cent=           0 NGrid=           0
         NMat0=    1 NMatS0=    780 NMatT0=    0 NMatD0=    1 NMtDS0=    0 NMtDT0=    0
 Petite list used in FoFCou.
 Tight linear equation convergence will be used.
 RPBE-PBE wavefunction.
 Quadratic Convergence SCF Method.
 Line search only if initial step raises energy.
 Iteration   1 EE= -154.790280391236                                    Grad=2.789D-02 Max rot=    0.2808 deg.
 Gradient too large for Newton-Raphson -- use scaled steepest descent instead.
 Alpha Gap=     0.247 HL deriv= 1.80D-17
     ILin= 1 X=0.000D+00 Y=-1.547902803912D+02 DE= 0.00D+00 F= -1.29D-03
     ILin= 2 X=3.000D-01 Y=-1.547905864883D+02 DE=-3.06D-04 F= -7.54D-04 OKLS=F
     ILin= 3 X=6.000D-01 Y=-1.547907326924D+02 DE=-4.52D-04 F= -2.21D-04
     ILin= 4 X=1.200D+00 Y=-1.547905450313D+02 DE=-2.65D-04 F=  8.46D-04
     An  expanding polynomial of degree  4 produced  0.7242
 Iteration   2 EE= -154.790746397134     Delta-E=       -0.000466005898 Grad=1.067D-02 Max rot=    0.1014 deg.
 Gradient too large for Newton-Raphson -- use scaled steepest descent instead.
 Alpha Gap=     0.249 HL deriv= 1.37D-17
     ILin= 1 X=0.000D+00 Y=-1.547907463971D+02 DE= 0.00D+00 F= -2.56D-04
     ILin= 2 X=5.000D-01 Y=-1.547908066335D+02 DE=-6.02D-05 F=  1.54D-05 OKLS=T
     Accept linear search using points  1 and  2.
     An  expanding polynomial of degree  2 produced  0.3426
 Iteration   3 EE= -154.790802322557     Delta-E=       -0.000055925423 Grad=4.488D-03 Max rot=    0.0467 deg.
 QCNR:  CnvC1=2.60D-09 CnvC2=2.60D-08
 LinEq1:  Iter=  0 NonCon=     1 RMS=1.71D-04 Max=9.61D-04 NDo=     1
 AX will form     1 AO Fock derivatives at one time.
 LinEq1:  Iter=  1 NonCon=     1 RMS=9.10D-05 Max=6.84D-04 NDo=     1
 LinEq1:  Iter=  2 NonCon=     1 RMS=1.00D-05 Max=5.95D-05 NDo=     1
 LinEq1:  Iter=  3 NonCon=     1 RMS=4.73D-06 Max=2.55D-05 NDo=     1
 LinEq1:  Iter=  4 NonCon=     1 RMS=2.91D-06 Max=1.53D-05 NDo=     1
 LinEq1:  Iter=  5 NonCon=     1 RMS=5.26D-07 Max=3.10D-06 NDo=     1
 LinEq1:  Iter=  6 NonCon=     1 RMS=1.74D-07 Max=9.08D-07 NDo=     1
 LinEq1:  Iter=  7 NonCon=     1 RMS=8.52D-08 Max=4.36D-07 NDo=     1
 LinEq1:  Iter=  8 NonCon=     1 RMS=1.34D-08 Max=7.99D-08 NDo=     1
 LinEq1:  Iter=  9 NonCon=     0 RMS=1.80D-09 Max=1.22D-08 NDo=     1
 Linear equations converged to 2.600D-09 2.600D-08 after     9 iterations.
 Angle between quadratic step and gradient=  34.35 degrees.
     ILin= 1 X=0.000D+00 Y=-1.547908023226D+02 DE= 0.00D+00 F= -2.99D-05
     ILin= 2 X=1.000D+00 Y=-1.547908172591D+02 DE=-1.49D-05 F= -2.81D-09 OKLS=T
     Reject lnstep IMin12=  1  2 Big=T Turn=F Min= 1.000D+00 FVal=-1.547908172591D+02 Lims=  0.00D+00  1.00D+00
     ILin= 3 X=2.000D+00 Y=-1.547908023301D+02 DE=-7.53D-09 F=  2.99D-05
     An  expanding polynomial of degree  3 produced  1.0001
     Minimum is close to point  2 DX=  1.26D-04 DF= -2.27D-13 DXR=  1.26D-04 DFR=  1.52D-08 which will be used.
 Iteration   4 EE= -154.790817259146     Delta-E=       -0.000014936590 Grad=2.706D-06 Max rot=    0.0000 deg.
 QCNR:  CnvC1=2.71D-11 CnvC2=2.71D-10
 LinEq1:  Iter=  0 NonCon=     1 RMS=1.39D-07 Max=9.26D-07 NDo=     1
 LinEq1:  Iter=  1 NonCon=     1 RMS=7.56D-08 Max=3.63D-07 NDo=     1
 LinEq1:  Iter=  2 NonCon=     1 RMS=3.26D-08 Max=2.26D-07 NDo=     1
 LinEq1:  Iter=  3 NonCon=     1 RMS=1.32D-08 Max=1.08D-07 NDo=     1
 LinEq1:  Iter=  4 NonCon=     1 RMS=1.98D-09 Max=1.61D-08 NDo=     1
 LinEq1:  Iter=  5 NonCon=     1 RMS=2.62D-10 Max=1.39D-09 NDo=     1
 LinEq1:  Iter=  6 NonCon=     1 RMS=1.57D-10 Max=9.88D-10 NDo=     1
 LinEq1:  Iter=  7 NonCon=     1 RMS=5.26D-11 Max=3.59D-10 NDo=     1
 LinEq1:  Iter=  8 NonCon=     0 RMS=4.32D-12 Max=2.35D-11 NDo=     1
 Linear equations converged to 2.706D-11 2.706D-10 after     8 iterations.
 Angle between quadratic step and gradient=  35.79 degrees.
     ILin= 1 X=0.000D+00 Y=-1.547908172591D+02 DE= 0.00D+00 F= -6.85D-12
     ILin= 2 X=1.000D+00 Y=-1.547908172592D+02 DE=-3.89D-12
 Iteration   5 EE= -154.790817259150     Delta-E=       -0.000000000004 Grad=2.687D-12 Max rot=    0.0000 deg.
 Rotation gradient small -- convergence achieved.
 Orbital symmetries in SymMO:
    1=1    2=1    3=1    4=1    5=1    6=1    7=1    8=2    9=1   10=1
   11=2   12=1   13=2   14=1   15=1   16=2   17=1   18=1   19=1   20=2
   21=1   22=1   23=1   24=2   25=1   26=1   27=2   28=1   29=2   30=1
   31=1   32=1   33=2   34=1   35=1   36=2   37=1   38=1   39=1
 SCF Done:  E(RPBE-PBE) =  -154.790817259     a.u. after    5 cycles
            Convg  =    0.2687D-11                    27 Fock formations.
              S**2 =  0.0000                  -V/T =  2.0056
 Leave Link  508 at Tue Aug 20 09:47:22 2024, MaxMem=   104857600 cpu:              18.3 elap:              18.3
 (Enter /apps20/sw/gaussian/G16RevB.01/pgi/17.5/g16/l701.exe)
 ... and contract with generalized density number  0.
 Compute integral first derivatives.
 Leave Link  701 at Tue Aug 20 09:47:22 2024, MaxMem=   104857600 cpu:               0.0 elap:               0.0
 (Enter /apps20/sw/gaussian/G16RevB.01/pgi/17.5/g16/l702.exe)
 L702 exits ... SP integral derivatives will be done elsewhere.
 Leave Link  702 at Tue Aug 20 09:47:22 2024, MaxMem=   104857600 cpu:               0.0 elap:               0.0
 (Enter /apps20/sw/gaussian/G16RevB.01/pgi/17.5/g16/l703.exe)
 Integral derivatives from FoFJK, PRISM(SPDF).
 Compute integral first derivatives, UseDBF=F ICtDFT=           0.
 Calling FoFJK, ICntrl=      2527 FMM=F ISym2X=1 I1Cent= 0 IOpClX= 0 NMat=1 NMatS=1 NMatT=0.
 FoFJK:  IHMeth= 1 ICntrl=    2527 DoSepK=F KAlg= 0 I1Cent=           0 FoldK=F
 IRaf=         0 NMat=       1 IRICut=       1 DoRegI=T DoRafI=F ISym2E= 1 IDoP0=0 IntGTp=1.
 FoFCou: FMM=F IPFlag=           0 FMFlag=      100000 FMFlg1=         800
         NFxFlg=           0 DoJE=F BraDBF=F KetDBF=F FulRan=T
         wScrn=  0.000000 ICntrl=      2527 IOpCl=  0 I1Cent=           0 NGrid=           0
         NMat0=    1 NMatS0=      1 NMatT0=    0 NMatD0=    1 NMtDS0=    0 NMtDT0=    0
 Petite list used in FoFCou.
 Leave Link  703 at Tue Aug 20 09:47:23 2024, MaxMem=   104857600 cpu:               0.7 elap:               0.7
 (Enter /apps20/sw/gaussian/G16RevB.01/pgi/17.5/g16/l716.exe)
 Dipole        =-5.34135571D-03 6.96971434D-01 2.22044605D-16
 ***** Axes restored to original set *****
 -------------------------------------------------------------------
 Center     Atomic                   Forces (Hartrees/Bohr)
 Number     Number              X              Y              Z
 -------------------------------------------------------------------
      1        6          -0.002591923   -0.001519112   -0.000000000
      2        6           0.002870950    0.004710231   -0.000000000
      3        8           0.001049795   -0.005192346   -0.000000000
      4        1           0.001292127    0.002817160    0.000000000
      5        1          -0.001174731   -0.000520580    0.000072431
      6        1          -0.001174731   -0.000520580   -0.000072431
      7        1          -0.000466282    0.000679012    0.000000000
      8        1           0.000097398   -0.000226892    0.000038798
      9        1           0.000097398   -0.000226892   -0.000038798
 -------------------------------------------------------------------
 Cartesian Forces:  Max     0.005192346 RMS     0.001734602
 Leave Link  716 at Tue Aug 20 09:47:23 2024, MaxMem=   104857600 cpu:               0.0 elap:               0.0
 (Enter /apps20/sw/gaussian/G16RevB.01/pgi/17.5/g16/l103.exe)

 GradGradGradGradGradGradGradGradGradGradGradGradGradGradGradGradGradGrad
 Berny optimization.
 Using GEDIIS/GDIIS optimizer.
 FormGI is forming the generalized inverse of G from B-inverse, IUseBI=4.
 Internal  Forces:  Max     0.005661303 RMS     0.001301303
 Search for a local minimum.
 Step number   2 out of a maximum of  100
 All quantities printed in internal units (Hartrees-Bohrs-Radians)
 RMS Force = .13013D-02 SwitMx=.10000D-02 MixMth= 1
 Mixed Optimization -- RFO/linear search
 Update second derivatives using D2CorX and points    1    2
 DE= -1.54D-03 DEPred=-1.85D-03 R= 8.30D-01
 TightC=F SS=  1.41D+00  RLast= 1.10D-01 DXNew= 5.0454D-01 3.2993D-01
 Trust test= 8.30D-01 RLast= 1.10D-01 DXMaxT set to 3.30D-01
 ITU=  1  0
 Use linear search instead of GDIIS.
     Eigenvalues ---    0.00608   0.01337   0.05449   0.05737   0.05843
     Eigenvalues ---    0.06272   0.11039   0.13605   0.15931   0.16000
     Eigenvalues ---    0.16000   0.18110   0.21957   0.31539   0.33761
     Eigenvalues ---    0.33982   0.34319   0.34492   0.34610   0.41134
     Eigenvalues ---    0.52194
 RFO step:  Lambda=-2.31276077D-04 EMin= 6.08070755D-03
 Quartic linear search produced a step of -0.12576.
 Iteration  1 RMS(Cart)=  0.00915756 RMS(Int)=  0.00007279
 Iteration  2 RMS(Cart)=  0.00008032 RMS(Int)=  0.00003081
 Iteration  3 RMS(Cart)=  0.00000000 RMS(Int)=  0.00003081
 ITry= 1 IFail=0 DXMaxC= 3.55D-02 DCOld= 1.00D+10 DXMaxT= 3.30D-01 DXLimC= 3.00D+00 Rises=F
 ClnCor:  largest displacement from symmetrization is 6.57D-12 for atom     6.
 Variable       Old X    -DE/DX   Delta X   Delta X   Delta X     New X
                                 (Linear)    (Quad)   (Total)
    R1        2.88159  -0.00138  -0.00307   0.00059  -0.00249   2.87910
    R2        2.08473  -0.00007  -0.00234   0.00324   0.00089   2.08562
    R3        2.08294   0.00016  -0.00249   0.00404   0.00155   2.08449
    R4        2.08294   0.00016  -0.00249   0.00404   0.00155   2.08449
    R5        2.75885  -0.00068  -0.00786   0.01010   0.00224   2.76108
    R6        2.10090  -0.00031  -0.00296   0.00351   0.00055   2.10145
    R7        2.10090  -0.00031  -0.00296   0.00351   0.00055   2.10145
    R8        1.86415   0.00062  -0.00360   0.00633   0.00274   1.86688
    A1        1.93565  -0.00133  -0.00049  -0.00728  -0.00777   1.92788
    A2        1.92306   0.00043  -0.00036   0.00322   0.00286   1.92592
    A3        1.92306   0.00043  -0.00036   0.00322   0.00286   1.92592
    A4        1.89656   0.00037   0.00030   0.00089   0.00119   1.89776
    A5        1.89656   0.00037   0.00030   0.00089   0.00119   1.89776
    A6        1.88794  -0.00025   0.00066  -0.00085  -0.00020   1.88774
    A7        1.87751  -0.00314  -0.00102  -0.01353  -0.01454   1.86297
    A8        1.91348   0.00153   0.00111   0.00781   0.00886   1.92234
    A9        1.91348   0.00153   0.00111   0.00781   0.00886   1.92234
   A10        1.94584   0.00020  -0.00119  -0.00351  -0.00467   1.94118
   A11        1.94584   0.00020  -0.00119  -0.00351  -0.00467   1.94118
   A12        1.86782  -0.00019   0.00122   0.00554   0.00667   1.87449
   A13        1.93582  -0.00566  -0.00711  -0.02094  -0.02804   1.90777
    D1        3.14159   0.00000   0.00000   0.00000   0.00000   3.14159
    D2       -1.02282  -0.00078  -0.00141  -0.00793  -0.00938  -1.03220
    D3        1.02282   0.00078   0.00141   0.00793   0.00938   1.03220
    D4       -1.04094  -0.00012  -0.00018  -0.00150  -0.00168  -1.04262
    D5        1.07783  -0.00089  -0.00159  -0.00942  -0.01106   1.06677
    D6        3.12347   0.00066   0.00123   0.00643   0.00770   3.13117
    D7        1.04094   0.00012   0.00018   0.00150   0.00168   1.04262
    D8       -3.12347  -0.00066  -0.00123  -0.00643  -0.00770  -3.13117
    D9       -1.07783   0.00089   0.00159   0.00942   0.01106  -1.06677
   D10        3.14159  -0.00000   0.00000  -0.00000   0.00000   3.14159
   D11        1.04318   0.00001  -0.00002   0.00115   0.00109   1.04426
   D12       -1.04318  -0.00001   0.00002  -0.00115  -0.00109  -1.04426
         Item               Value     Threshold  Converged?
 Maximum Force            0.005661     0.000015     NO 
 RMS     Force            0.001301     0.000010     NO 
 Maximum Displacement     0.035492     0.000060     NO 
 RMS     Displacement     0.009205     0.000040     NO 
 Predicted change in Energy=-1.427755D-04
 Lowest energy point so far.  Saving SCF results.
 GradGradGradGradGradGradGradGradGradGradGradGradGradGradGradGradGradGrad

 Leave Link  103 at Tue Aug 20 09:47:23 2024, MaxMem=   104857600 cpu:               0.0 elap:               0.0
 (Enter /apps20/sw/gaussian/G16RevB.01/pgi/17.5/g16/l202.exe)
                          Input orientation:                          
 ---------------------------------------------------------------------
 Center     Atomic      Atomic             Coordinates (Angstroms)
 Number     Number       Type             X           Y           Z
 ---------------------------------------------------------------------
      1          6           0       11.122885    8.632964    8.886933
      2          6           0        9.952992    9.608961    8.886933
      3          8           0        8.733511    8.804171    8.886933
      4          1           0        7.947341    9.402423    8.886933
      5          1           0       10.002008   10.265472    9.783157
      6          1           0       10.002008   10.265472    7.990709
      7          1           0       12.081527    9.179844    8.886933
      8          1           0       11.083506    7.987042    9.780236
      9          1           0       11.083506    7.987042    7.993630
 ---------------------------------------------------------------------
                    Distance matrix (angstroms):
                    1          2          3          4          5
     1  C    0.000000
     2  C    1.523555   0.000000
     3  O    2.395500   1.461103   0.000000
     4  H    3.267437   2.016258   0.987911   0.000000
     5  H    2.173630   1.112038   2.132535   2.402026   0.000000
     6  H    2.173630   1.112038   2.132535   2.402026   1.792449
     7  H    1.103664   2.171360   3.369027   4.140174   2.511216
     8  H    1.103067   2.169487   2.643515   3.554832   2.522081
     9  H    1.103067   2.169487   2.643515   3.554832   3.092457
                    6          7          8          9
     6  H    0.000000
     7  H    2.511216   0.000000
     8  H    3.092457   1.793548   0.000000
     9  H    2.522081   1.793548   1.786606   0.000000
 Stoichiometry    C2H6O
 Framework group  CS[SG(C2H2O),X(H4)]
 Deg. of freedom    13
 Full point group                 CS      NOp   2
 RotChk:  IX=0 Diff= 1.80D-04
 Largest Abelian subgroup         CS      NOp   2
 Largest concise Abelian subgroup CS      NOp   2
                         Standard orientation:                         
 ---------------------------------------------------------------------
 Center     Atomic      Atomic             Coordinates (Angstroms)
 Number     Number       Type             X           Y           Z
 ---------------------------------------------------------------------
      1          6           0        1.186437   -0.384166    0.000000
      2          6           0        0.000000    0.571652    0.000000
      3          8           0       -1.205519   -0.253905    0.000000
      4          1           0       -2.001820    0.330794    0.000000
      5          1           0        0.037765    1.228907    0.896224
      6          1           0        0.037765    1.228907   -0.896224
      7          1           0        2.135572    0.179052    0.000000
      8          1           0        1.158126   -1.030668    0.893303
      9          1           0        1.158126   -1.030668   -0.893303
 ---------------------------------------------------------------------
 Rotational constants (GHZ):          33.6922212           9.2169853           7.9742722
 Leave Link  202 at Tue Aug 20 09:47:23 2024, MaxMem=   104857600 cpu:               0.0 elap:               0.0
 (Enter /apps20/sw/gaussian/G16RevB.01/pgi/17.5/g16/l301.exe)
 Standard basis: 6-31G (6D, 7F)
 Ernie: Thresh=  0.10000D-02 Tol=  0.10000D-05 Strict=F.
 There are    29 symmetry adapted cartesian basis functions of A'  symmetry.
 There are    10 symmetry adapted cartesian basis functions of A"  symmetry.
 There are    29 symmetry adapted basis functions of A'  symmetry.
 There are    10 symmetry adapted basis functions of A"  symmetry.
    39 basis functions,    90 primitive gaussians,    39 cartesian basis functions
    13 alpha electrons       13 beta electrons
       nuclear repulsion energy        80.6389047420 Hartrees.
 IExCor= 1009 DFT=T Ex=PBE Corr=PBE ExCW=0 ScaHFX=  0.000000
 ScaDFX=  1.000000  1.000000  1.000000  1.000000 ScalE2=  1.000000  1.000000
 IRadAn=      5 IRanWt=     -1 IRanGd=            0 ICorTp=0 IEmpDi=  4
 NAtoms=    9 NActive=    9 NUniq=    7 SFac= 1.65D+00 NAtFMM=   60 NAOKFM=F Big=F
 Integral buffers will be    131072 words long.
 Raffenetti 2 integral format.
 Two-electron integral symmetry is turned on.
 Leave Link  301 at Tue Aug 20 09:47:23 2024, MaxMem=   104857600 cpu:               0.0 elap:               0.0
 (Enter /apps20/sw/gaussian/G16RevB.01/pgi/17.5/g16/l302.exe)
 NPDir=0 NMtPBC=     1 NCelOv=     1 NCel=       1 NClECP=     1 NCelD=      1
         NCelK=      1 NCelE2=     1 NClLst=     1 CellRange=     0.0.
 One-electron integrals computed using PRISM.
 One-electron integral symmetry used in STVInt
 NBasis=    39 RedAO= T EigKep=  8.49D-03  NBF=    29    10
 NBsUse=    39 1.00D-06 EigRej= -1.00D+00 NBFU=    29    10
 Precomputing XC quadrature grid using
 IXCGrd= 4 IRadAn=           5 IRanWt=          -1 IRanGd=           0 AccXCQ= 0.00D+00.
 Generated NRdTot=       0 NPtTot=           0 NUsed=           0 NTot=          32
 NSgBfM=    39    39    39    39    39 MxSgAt=     9 MxSgA2=     9.
 Leave Link  302 at Tue Aug 20 09:47:24 2024, MaxMem=   104857600 cpu:               0.1 elap:               0.1
 (Enter /apps20/sw/gaussian/G16RevB.01/pgi/17.5/g16/l303.exe)
 DipDrv:  MaxL=1.
 Leave Link  303 at Tue Aug 20 09:47:24 2024, MaxMem=   104857600 cpu:               0.0 elap:               0.0
 (Enter /apps20/sw/gaussian/G16RevB.01/pgi/17.5/g16/l401.exe)
 Initial guess from the checkpoint file:  "/scratch/Gau-8738.chk"
 B after Tr=    -0.000000   -0.000000    0.000000
         Rot=    1.000000    0.000000   -0.000000   -0.000899 Ang=  -0.10 deg.
 Guess basis will be translated and rotated to current coordinates.
 JPrj=2 DoOrth=T DoCkMO=T.
 Initial guess orbital symmetries:
       Occupied  (A') (A') (A') (A') (A') (A') (A') (A") (A') (A')
                 (A") (A') (A")
       Virtual   (A') (A') (A") (A') (A') (A') (A") (A') (A') (A')
                 (A") (A') (A') (A") (A') (A") (A') (A') (A') (A")
                 (A') (A') (A") (A') (A') (A')
 The electronic state of the initial guess is 1-A'.
 Generating alternative initial guess.
 ExpMin= 1.61D-01 ExpMax= 5.48D+03 ExpMxC= 8.25D+02 IAcc=3 IRadAn=         5 AccDes= 0.00D+00
 Harris functional with IExCor= 1009 and IRadAn=       5 diagonalized for initial guess.
 HarFok:  IExCor= 1009 AccDes= 0.00D+00 IRadAn=         5 IDoV= 1 UseB2=F ITyADJ=14
 ICtDFT=  3500011 ScaDFX=  1.000000  1.000000  1.000000  1.000000
 FoFCou: FMM=F IPFlag=           0 FMFlag=      100000 FMFlg1=           0
         NFxFlg=           0 DoJE=T BraDBF=F KetDBF=T FulRan=T
         wScrn=  0.000000 ICntrl=       500 IOpCl=  0 I1Cent=   200000004 NGrid=           0
         NMat0=    1 NMatS0=      1 NMatT0=    0 NMatD0=    1 NMtDS0=    0 NMtDT0=    0
 Petite list used in FoFCou.
 Harris En= -154.886142747690    
 Leave Link  401 at Tue Aug 20 09:47:24 2024, MaxMem=   104857600 cpu:               0.4 elap:               0.4
 (Enter /apps20/sw/gaussian/G16RevB.01/pgi/17.5/g16/l508.exe)
 Keep J ints in memory in symmetry-blocked form, NReq=1172130.
 FoFCou: FMM=F IPFlag=           0 FMFlag=           0 FMFlg1=           0
         NFxFlg=           0 DoJE=F BraDBF=F KetDBF=F FulRan=T
         wScrn=  0.000000 ICntrl=       600 IOpCl=  0 I1Cent=           0 NGrid=           0
         NMat0=    1 NMatS0=    780 NMatT0=    0 NMatD0=    1 NMtDS0=    0 NMtDT0=    0
 Petite list used in FoFCou.
 Tight linear equation convergence will be used.
 RPBE-PBE wavefunction.
 Quadratic Convergence SCF Method.
 Line search only if initial step raises energy.
 Iteration   1 EE= -154.790908222854                                    Grad=8.260D-03 Max rot=    0.1111 deg.
 QCNR:  CnvC1=2.60D-09 CnvC2=2.60D-08
 LinEq1:  Iter=  0 NonCon=     1 RMS=3.79D-04 Max=2.73D-03 NDo=     1
 AX will form     1 AO Fock derivatives at one time.
 LinEq1:  Iter=  1 NonCon=     1 RMS=2.19D-04 Max=1.37D-03 NDo=     1
 LinEq1:  Iter=  2 NonCon=     1 RMS=6.21D-05 Max=4.32D-04 NDo=     1
 LinEq1:  Iter=  3 NonCon=     1 RMS=3.29D-05 Max=1.63D-04 NDo=     1
 LinEq1:  Iter=  4 NonCon=     1 RMS=9.13D-06 Max=7.20D-05 NDo=     1
 LinEq1:  Iter=  5 NonCon=     1 RMS=1.19D-06 Max=8.98D-06 NDo=     1
 LinEq1:  Iter=  6 NonCon=     1 RMS=2.32D-07 Max=1.74D-06 NDo=     1
 LinEq1:  Iter=  7 NonCon=     1 RMS=1.16D-07 Max=5.72D-07 NDo=     1
 LinEq1:  Iter=  8 NonCon=     1 RMS=1.09D-08 Max=8.20D-08 NDo=     1
 LinEq1:  Iter=  9 NonCon=     0 RMS=2.37D-09 Max=1.36D-08 NDo=     1
 Linear equations converged to 2.600D-09 2.600D-08 after     9 iterations.
 Angle between quadratic step and gradient=  31.54 degrees.
     ILin= 1 X=0.000D+00 Y=-1.547909082229D+02 DE= 0.00D+00 F= -1.25D-04
     ILin= 2 X=1.000D+00 Y=-1.547909706771D+02 DE=-6.25D-05 F=  8.26D-08 OKLS=T
     Accept linear search using points  1 and  2.
     An  expanding polynomial of degree  2 produced  0.9993
     Minimum is close to point  2 DX= -6.60D-04 DF= -2.73D-11 DXR=  6.61D-04 DFR=  4.36D-07 which will be used.
 Iteration   2 EE= -154.790970677123     Delta-E=       -0.000062454269 Grad=1.535D-05 Max rot=    0.0002 deg.
 QCNR:  CnvC1=1.53D-10 CnvC2=1.53D-09
 LinEq1:  Iter=  0 NonCon=     1 RMS=9.77D-07 Max=1.20D-05 NDo=     1
 LinEq1:  Iter=  1 NonCon=     1 RMS=7.46D-07 Max=4.67D-06 NDo=     1
 LinEq1:  Iter=  2 NonCon=     1 RMS=1.72D-07 Max=1.42D-06 NDo=     1
 LinEq1:  Iter=  3 NonCon=     1 RMS=8.13D-08 Max=5.88D-07 NDo=     1
 LinEq1:  Iter=  4 NonCon=     1 RMS=2.80D-08 Max=2.59D-07 NDo=     1
 LinEq1:  Iter=  5 NonCon=     1 RMS=2.31D-09 Max=1.48D-08 NDo=     1
 LinEq1:  Iter=  6 NonCon=     1 RMS=7.36D-10 Max=4.83D-09 NDo=     1
 LinEq1:  Iter=  7 NonCon=     1 RMS=3.85D-10 Max=3.22D-09 NDo=     1
 LinEq1:  Iter=  8 NonCon=     0 RMS=6.25D-11 Max=3.99D-10 NDo=     1
 Linear equations converged to 1.535D-10 1.535D-09 after     8 iterations.
 Angle between quadratic step and gradient=  43.11 degrees.
     ILin= 1 X=0.000D+00 Y=-1.547909706771D+02 DE= 0.00D+00 F= -3.51D-10
     ILin= 2 X=1.000D+00 Y=-1.547909706773D+02 DE=-1.75D-10
 Iteration   3 EE= -154.790970677298     Delta-E=       -0.000000000175 Grad=1.228D-10 Max rot=    0.0000 deg.
 Rotation gradient small -- convergence achieved.
 Orbital symmetries in SymMO:
    1=1    2=1    3=1    4=1    5=1    6=1    7=1    8=2    9=1   10=1
   11=2   12=1   13=2   14=1   15=1   16=2   17=1   18=1   19=1   20=2
   21=1   22=1   23=1   24=2   25=1   26=1   27=2   28=1   29=2   30=1
   31=1   32=1   33=2   34=1   35=1   36=2   37=1   38=1   39=1
 SCF Done:  E(RPBE-PBE) =  -154.790970677     a.u. after    3 cycles
            Convg  =    0.1228D-09                    20 Fock formations.
              S**2 =  0.0000                  -V/T =  2.0056
 Leave Link  508 at Tue Aug 20 09:47:39 2024, MaxMem=   104857600 cpu:              14.7 elap:              14.7
 (Enter /apps20/sw/gaussian/G16RevB.01/pgi/17.5/g16/l701.exe)
 ... and contract with generalized density number  0.
 Compute integral first derivatives.
 Leave Link  701 at Tue Aug 20 09:47:39 2024, MaxMem=   104857600 cpu:               0.0 elap:               0.0
 (Enter /apps20/sw/gaussian/G16RevB.01/pgi/17.5/g16/l702.exe)
 L702 exits ... SP integral derivatives will be done elsewhere.
 Leave Link  702 at Tue Aug 20 09:47:39 2024, MaxMem=   104857600 cpu:               0.0 elap:               0.0
 (Enter /apps20/sw/gaussian/G16RevB.01/pgi/17.5/g16/l703.exe)
 Integral derivatives from FoFJK, PRISM(SPDF).
 Compute integral first derivatives, UseDBF=F ICtDFT=           0.
 Calling FoFJK, ICntrl=      2527 FMM=F ISym2X=1 I1Cent= 0 IOpClX= 0 NMat=1 NMatS=1 NMatT=0.
 FoFJK:  IHMeth= 1 ICntrl=    2527 DoSepK=F KAlg= 0 I1Cent=           0 FoldK=F
 IRaf=         0 NMat=       1 IRICut=       1 DoRegI=T DoRafI=F ISym2E= 1 IDoP0=0 IntGTp=1.
 FoFCou: FMM=F IPFlag=           0 FMFlag=      100000 FMFlg1=         800
         NFxFlg=           0 DoJE=F BraDBF=F KetDBF=F FulRan=T
         wScrn=  0.000000 ICntrl=      2527 IOpCl=  0 I1Cent=           0 NGrid=           0
         NMat0=    1 NMatS0=      1 NMatT0=    0 NMatD0=    1 NMtDS0=    0 NMtDT0=    0
 Petite list used in FoFCou.
 Leave Link  703 at Tue Aug 20 09:47:40 2024, MaxMem=   104857600 cpu:               0.7 elap:               0.7
 (Enter /apps20/sw/gaussian/G16RevB.01/pgi/17.5/g16/l716.exe)
 Dipole        =-1.19090923D-03 7.05163868D-01 0.00000000D+00
 ***** Axes restored to original set *****
 -------------------------------------------------------------------
 Center     Atomic                   Forces (Hartrees/Bohr)
 Number     Number              X              Y              Z
 -------------------------------------------------------------------
      1        6          -0.000075545    0.000184554    0.000000000
      2        6           0.002484117    0.001363843    0.000000000
      3        8          -0.001538264   -0.001318765    0.000000000
      4        1          -0.000093283    0.000390869   -0.000000000
      5        1          -0.000293117   -0.000565494   -0.000468978
      6        1          -0.000293117   -0.000565494    0.000468978
      7        1           0.000031903   -0.000263035   -0.000000000
      8        1          -0.000111346    0.000386761   -0.000357768
      9        1          -0.000111346    0.000386761    0.000357768
 -------------------------------------------------------------------
 Cartesian Forces:  Max     0.002484117 RMS     0.000726203
 Leave Link  716 at Tue Aug 20 09:47:40 2024, MaxMem=   104857600 cpu:               0.0 elap:               0.0
 (Enter /apps20/sw/gaussian/G16RevB.01/pgi/17.5/g16/l103.exe)

 GradGradGradGradGradGradGradGradGradGradGradGradGradGradGradGradGradGrad
 Berny optimization.
 Using GEDIIS/GDIIS optimizer.
 FormGI is forming the generalized inverse of G from B-inverse, IUseBI=4.
 Internal  Forces:  Max     0.001872225 RMS     0.000451709
 Search for a local minimum.
 Step number   3 out of a maximum of  100
 All quantities printed in internal units (Hartrees-Bohrs-Radians)
 RMS Force = .45171D-03 SwitMx=.10000D-02 MixMth= 2
 Mixed Optimization -- En-DIIS/RFO-DIIS
 Update second derivatives using D2CorX and points    1    2    3
 DE= -1.53D-04 DEPred=-1.43D-04 R= 1.07D+00
 TightC=F SS=  1.41D+00  RLast= 4.35D-02 DXNew= 5.5487D-01 1.3057D-01
 Trust test= 1.07D+00 RLast= 4.35D-02 DXMaxT set to 3.30D-01
 ITU=  1  1  0
 Use linear search instead of GDIIS.
     Eigenvalues ---    0.00608   0.01337   0.05538   0.05729   0.05776
     Eigenvalues ---    0.05909   0.10752   0.13543   0.15272   0.16000
     Eigenvalues ---    0.16002   0.16984   0.23090   0.31168   0.33761
     Eigenvalues ---    0.34079   0.34418   0.34610   0.34878   0.43664
     Eigenvalues ---    0.52207
 RFO step:  Lambda=-2.51147654D-05 EMin= 6.08070755D-03
 Quartic linear search produced a step of  0.05399.
 Iteration  1 RMS(Cart)=  0.00222259 RMS(Int)=  0.00000695
 Iteration  2 RMS(Cart)=  0.00000538 RMS(Int)=  0.00000381
 Iteration  3 RMS(Cart)=  0.00000000 RMS(Int)=  0.00000381
 ITry= 1 IFail=0 DXMaxC= 5.01D-03 DCOld= 1.00D+10 DXMaxT= 3.30D-01 DXLimC= 3.00D+00 Rises=F
 ClnCor:  largest displacement from symmetrization is 2.13D-12 for atom     9.
 Variable       Old X    -DE/DX   Delta X   Delta X   Delta X     New X
                                 (Linear)    (Quad)   (Total)
    R1        2.87910  -0.00065  -0.00013  -0.00207  -0.00220   2.87690
    R2        2.08562  -0.00010   0.00005  -0.00007  -0.00002   2.08560
    R3        2.08449  -0.00051   0.00008  -0.00128  -0.00120   2.08330
    R4        2.08449  -0.00051   0.00008  -0.00128  -0.00120   2.08330
    R5        2.76108   0.00187   0.00012   0.00564   0.00576   2.76684
    R6        2.10145  -0.00072   0.00003  -0.00200  -0.00197   2.09948
    R7        2.10145  -0.00072   0.00003  -0.00200  -0.00197   2.09948
    R8        1.86688   0.00031   0.00015   0.00108   0.00123   1.86811
    A1        1.92788   0.00046  -0.00042   0.00315   0.00273   1.93062
    A2        1.92592  -0.00027   0.00015  -0.00187  -0.00172   1.92420
    A3        1.92592  -0.00027   0.00015  -0.00187  -0.00172   1.92420
    A4        1.89776  -0.00005   0.00006   0.00010   0.00017   1.89792
    A5        1.89776  -0.00005   0.00006   0.00010   0.00017   1.89792
    A6        1.88774   0.00019  -0.00001   0.00038   0.00037   1.88811
    A7        1.86297   0.00042  -0.00079   0.00108   0.00029   1.86326
    A8        1.92234   0.00004   0.00048   0.00144   0.00191   1.92425
    A9        1.92234   0.00004   0.00048   0.00144   0.00191   1.92425
   A10        1.94118  -0.00031  -0.00025  -0.00292  -0.00317   1.93800
   A11        1.94118  -0.00031  -0.00025  -0.00292  -0.00317   1.93800
   A12        1.87449   0.00012   0.00036   0.00190   0.00225   1.87674
   A13        1.90777  -0.00048  -0.00151  -0.00389  -0.00541   1.90237
    D1        3.14159   0.00000   0.00000   0.00000   0.00000   3.14159
    D2       -1.03220  -0.00010  -0.00051  -0.00205  -0.00256  -1.03476
    D3        1.03220   0.00010   0.00051   0.00205   0.00256   1.03476
    D4       -1.04262   0.00006  -0.00009   0.00095   0.00086  -1.04176
    D5        1.06677  -0.00004  -0.00060  -0.00110  -0.00170   1.06507
    D6        3.13117   0.00015   0.00042   0.00301   0.00343   3.13459
    D7        1.04262  -0.00006   0.00009  -0.00095  -0.00086   1.04176
    D8       -3.13117  -0.00015  -0.00042  -0.00301  -0.00343  -3.13459
    D9       -1.06677   0.00004   0.00060   0.00110   0.00170  -1.06507
   D10        3.14159  -0.00000   0.00000  -0.00000   0.00000   3.14159
   D11        1.04426  -0.00013   0.00006  -0.00075  -0.00069   1.04357
   D12       -1.04426   0.00013  -0.00006   0.00075   0.00069  -1.04357
         Item               Value     Threshold  Converged?
 Maximum Force            0.001872     0.000015     NO 
 RMS     Force            0.000452     0.000010     NO 
 Maximum Displacement     0.005009     0.000060     NO 
 RMS     Displacement     0.002223     0.000040     NO 
 Predicted change in Energy=-1.299604D-05
 Lowest energy point so far.  Saving SCF results.
 GradGradGradGradGradGradGradGradGradGradGradGradGradGradGradGradGradGrad

 Leave Link  103 at Tue Aug 20 09:47:40 2024, MaxMem=   104857600 cpu:               0.0 elap:               0.0
 (Enter /apps20/sw/gaussian/G16RevB.01/pgi/17.5/g16/l202.exe)
                          Input orientation:                          
 ---------------------------------------------------------------------
 Center     Atomic      Atomic             Coordinates (Angstroms)
 Number     Number       Type             X           Y           Z
 ---------------------------------------------------------------------
      1          6           0       11.123871    8.633889    8.886933
      2          6           0        9.954542    9.608744    8.886933
      3          8           0        8.732555    8.802219    8.886933
      4          1           0        7.949086    9.405073    8.886933
      5          1           0       10.000046   10.263881    9.783056
      6          1           0       10.000046   10.263881    7.990810
      7          1           0       12.083813    9.178466    8.886933
      8          1           0       11.082664    7.988618    9.779841
      9          1           0       11.082664    7.988618    7.994025
 ---------------------------------------------------------------------
                    Distance matrix (angstroms):
                    1          2          3          4          5
     1  C    0.000000
     2  C    1.522390   0.000000
     3  O    2.397233   1.464150   0.000000
     4  H    3.267106   2.015772   0.988563   0.000000
     5  H    2.173222   1.110996   2.132141   2.397295   0.000000
     6  H    2.173222   1.110996   2.132141   2.397295   1.792246
     7  H    1.103654   2.172310   3.372312   4.140931   2.514607
     8  H    1.102433   2.166738   2.642394   3.552878   2.519702
     9  H    1.102433   2.166738   2.642394   3.552878   3.090230
                    6          7          8          9
     6  H    0.000000
     7  H    2.514607   0.000000
     8  H    3.090230   1.793133   0.000000
     9  H    2.519702   1.793133   1.785816   0.000000
 Stoichiometry    C2H6O
 Framework group  CS[SG(C2H2O),X(H4)]
 Deg. of freedom    13
 Full point group                 CS      NOp   2
 RotChk:  IX=0 Diff= 3.26D-03
 Largest Abelian subgroup         CS      NOp   2
 Largest concise Abelian subgroup CS      NOp   2
                         Standard orientation:                         
 ---------------------------------------------------------------------
 Center     Atomic      Atomic             Coordinates (Angstroms)
 Number     Number       Type             X           Y           Z
 ---------------------------------------------------------------------
      1          6           0        1.188048   -0.380104    0.000000
      2          6           0        0.000000    0.571848    0.000000
      3          8           0       -1.206087   -0.258265    0.000000
      4          1           0       -2.001120    0.329253    0.000000
      5          1           0        0.032766    1.227746    0.896123
      6          1           0        0.032766    1.227746   -0.896123
      7          1           0        2.137228    0.183020    0.000000
      8          1           0        1.159385   -1.026054    0.892908
      9          1           0        1.159385   -1.026054   -0.892908
 ---------------------------------------------------------------------
 Rotational constants (GHZ):          33.6967455           9.2081464           7.9674592
 Leave Link  202 at Tue Aug 20 09:47:40 2024, MaxMem=   104857600 cpu:               0.0 elap:               0.0
 (Enter /apps20/sw/gaussian/G16RevB.01/pgi/17.5/g16/l301.exe)
 Standard basis: 6-31G (6D, 7F)
 Ernie: Thresh=  0.10000D-02 Tol=  0.10000D-05 Strict=F.
 There are    29 symmetry adapted cartesian basis functions of A'  symmetry.
 There are    10 symmetry adapted cartesian basis functions of A"  symmetry.
 There are    29 symmetry adapted basis functions of A'  symmetry.
 There are    10 symmetry adapted basis functions of A"  symmetry.
    39 basis functions,    90 primitive gaussians,    39 cartesian basis functions
    13 alpha electrons       13 beta electrons
       nuclear repulsion energy        80.6168466412 Hartrees.
 IExCor= 1009 DFT=T Ex=PBE Corr=PBE ExCW=0 ScaHFX=  0.000000
 ScaDFX=  1.000000  1.000000  1.000000  1.000000 ScalE2=  1.000000  1.000000
 IRadAn=      5 IRanWt=     -1 IRanGd=            0 ICorTp=0 IEmpDi=  4
 NAtoms=    9 NActive=    9 NUniq=    7 SFac= 1.65D+00 NAtFMM=   60 NAOKFM=F Big=F
 Integral buffers will be    131072 words long.
 Raffenetti 2 integral format.
 Two-electron integral symmetry is turned on.
 Leave Link  301 at Tue Aug 20 09:47:40 2024, MaxMem=   104857600 cpu:               0.0 elap:               0.0
 (Enter /apps20/sw/gaussian/G16RevB.01/pgi/17.5/g16/l302.exe)
 NPDir=0 NMtPBC=     1 NCelOv=     1 NCel=       1 NClECP=     1 NCelD=      1
         NCelK=      1 NCelE2=     1 NClLst=     1 CellRange=     0.0.
 One-electron integrals computed using PRISM.
 One-electron integral symmetry used in STVInt
 NBasis=    39 RedAO= T EigKep=  8.48D-03  NBF=    29    10
 NBsUse=    39 1.00D-06 EigRej= -1.00D+00 NBFU=    29    10
 Precomputing XC quadrature grid using
 IXCGrd= 4 IRadAn=           5 IRanWt=          -1 IRanGd=           0 AccXCQ= 0.00D+00.
 Generated NRdTot=       0 NPtTot=           0 NUsed=           0 NTot=          32
 NSgBfM=    39    39    39    39    39 MxSgAt=     9 MxSgA2=     9.
 Leave Link  302 at Tue Aug 20 09:47:40 2024, MaxMem=   104857600 cpu:               0.2 elap:               0.2
 (Enter /apps20/sw/gaussian/G16RevB.01/pgi/17.5/g16/l303.exe)
 DipDrv:  MaxL=1.
 Leave Link  303 at Tue Aug 20 09:47:40 2024, MaxMem=   104857600 cpu:               0.0 elap:               0.0
 (Enter /apps20/sw/gaussian/G16RevB.01/pgi/17.5/g16/l401.exe)
 Initial guess from the checkpoint file:  "/scratch/Gau-8738.chk"
 B after Tr=     0.000000    0.000000    0.000000
         Rot=    0.999999   -0.000000    0.000000   -0.001376 Ang=  -0.16 deg.
 Guess basis will be translated and rotated to current coordinates.
 JPrj=2 DoOrth=T DoCkMO=T.
 Initial guess orbital symmetries:
       Occupied  (A') (A') (A') (A') (A') (A') (A') (A") (A') (A')
                 (A") (A') (A")
       Virtual   (A') (A') (A") (A') (A') (A') (A") (A') (A') (A')
                 (A") (A') (A') (A") (A') (A") (A') (A') (A') (A")
                 (A') (A') (A") (A') (A') (A')
 The electronic state of the initial guess is 1-A'.
 Leave Link  401 at Tue Aug 20 09:47:40 2024, MaxMem=   104857600 cpu:               0.0 elap:               0.0
 (Enter /apps20/sw/gaussian/G16RevB.01/pgi/17.5/g16/l508.exe)
 Keep J ints in memory in symmetry-blocked form, NReq=1172130.
 FoFCou: FMM=F IPFlag=           0 FMFlag=           0 FMFlg1=           0
[...]
               16            17            18            19            20 
     16  0.712154D-01
     17 -0.853649D-02  0.712154D-01
     18 -0.217944D-01  0.192805D-01  0.568495D-01
     19  0.192805D-01 -0.217944D-01  0.827455D-02  0.568495D-01
     20 -0.219568D-01 -0.219568D-01 -0.619096D-02 -0.619096D-02  0.293674D-01
     21 -0.555580D-02 -0.555580D-02 -0.778611D-02 -0.778611D-02  0.325889D-02
     22  0.294854D-02 -0.294854D-02 -0.125105D-01  0.125105D-01  0.000000D+00
     23 -0.523202D-02 -0.681822D-02  0.977720D-02 -0.552614D-03 -0.442177D-02
     24  0.681822D-02  0.523202D-02  0.552614D-03 -0.977720D-02  0.442177D-02
     25 -0.591338D-03 -0.163609D-02 -0.122080D-01  0.108467D-01  0.576981D-03
     26 -0.877190D-02 -0.550577D-02  0.100798D-01 -0.221641D-02 -0.384478D-02
     27  0.327834D-02  0.654447D-02  0.855177D-03 -0.114410D-01  0.499875D-02
     28  0.163609D-02  0.591338D-03 -0.108467D-01  0.122080D-01 -0.576981D-03
     29 -0.654447D-02 -0.327834D-02  0.114410D-01 -0.855177D-03 -0.499875D-02
     30  0.550577D-02  0.877190D-02  0.221641D-02 -0.100798D-01  0.384478D-02
     31  0.244975D-01 -0.244975D-01 -0.692810D-02  0.692810D-02  0.000000D+00
     32 -0.267912D-01 -0.245534D-02  0.216592D-01  0.133950D-01  0.143810D-01
     33  0.245534D-02  0.267912D-01 -0.133950D-01 -0.216592D-01 -0.143810D-01
               21            22            23            24            25 
     21  0.177793D+00
     22  0.000000D+00  0.158987D-01
     23  0.145970D-02  0.245814D-02  0.156496D-01
     24 -0.145970D-02  0.245814D-02  0.264918D-02  0.156496D-01
     25  0.449646D-03  0.578664D-02 -0.750485D-02 -0.818438D-02  0.166668D-01
     26  0.190935D-02 -0.765391D-02  0.568662D-02 -0.799335D-02  0.337532D-02
     27 -0.101005D-02 -0.765391D-02 -0.731382D-02  0.500709D-02  0.269579D-02
     28 -0.449646D-03  0.578664D-02 -0.818438D-02 -0.750485D-02  0.632124D-02
     29  0.101005D-02 -0.765391D-02  0.500709D-02 -0.731382D-02 -0.697026D-02
     30 -0.190935D-02 -0.765391D-02 -0.799335D-02  0.568662D-02 -0.764979D-02
     31  0.000000D+00 -0.298912D-02  0.256041D-02  0.256041D-02 -0.438014D-02
     32 -0.307348D-02  0.572333D-03 -0.109405D-02 -0.160457D-02  0.147904D-02
     33  0.307348D-02  0.572333D-03 -0.160457D-02 -0.109405D-02  0.164928D-02
               26            27            28            29            30 
     26  0.167158D-01
     27  0.303588D-02  0.153568D-01
     28 -0.764979D-02 -0.697026D-02  0.166668D-01
     29  0.569074D-02 -0.663017D-02  0.269579D-02  0.153568D-01
     30 -0.798923D-02  0.569074D-02  0.337532D-02  0.303588D-02  0.167158D-01
     31  0.116940D-02  0.116940D-02 -0.438014D-02  0.116940D-02  0.116940D-02
     32 -0.187349D-03 -0.697865D-03  0.164928D-02 -0.171085D-04 -0.527624D-03
     33 -0.527624D-03 -0.171085D-04  0.147904D-02 -0.697865D-03 -0.187349D-03
               31            32            33 
     31  0.184252D-01
     32 -0.734630D-02  0.256247D-01
     33 -0.734630D-02 -0.155043D-01  0.256247D-01
 Leave Link  716 at Tue Aug 20 09:48:47 2024, MaxMem=   104857600 cpu:               0.0 elap:               0.0
 (Enter /apps20/sw/gaussian/G16RevB.01/pgi/17.5/g16/l103.exe)

 GradGradGradGradGradGradGradGradGradGradGradGradGradGradGradGradGradGrad
 Berny optimization.
 Red2BG is reusing G-inverse.
 Internal  Forces:  Max     0.000012610 RMS     0.000002400
 Search for a local minimum.
 Step number   1 out of a maximum of    2
 All quantities printed in internal units (Hartrees-Bohrs-Radians)
 Second derivative matrix not updated -- analytic derivatives used.
 ITU=  0
     Eigenvalues ---    0.00221   0.00337   0.04493   0.04581   0.04914
     Eigenvalues ---    0.06206   0.09722   0.11744   0.12493   0.13530
     Eigenvalues ---    0.15489   0.16468   0.22802   0.30346   0.30412
     Eigenvalues ---    0.30940   0.33122   0.33277   0.33553   0.34994
     Eigenvalues ---    0.44711
 Angle between quadratic step and forces=  33.92 degrees.
 Linear search not attempted -- first point.
 Iteration  1 RMS(Cart)=  0.00000785 RMS(Int)=  0.00000000
 Iteration  2 RMS(Cart)=  0.00000000 RMS(Int)=  0.00000000
 ITry= 1 IFail=0 DXMaxC= 2.79D-05 DCOld= 1.00D+10 DXMaxT= 3.00D-01 DXLimC= 3.00D+00 Rises=F
 ClnCor:  largest displacement from symmetrization is 7.31D-13 for atom     9.
 Variable       Old X    -DE/DX   Delta X   Delta X   Delta X     New X
                                 (Linear)    (Quad)   (Total)
    R1        2.87599  -0.00000   0.00000  -0.00001  -0.00001   2.87599
    R2        2.08518   0.00000   0.00000   0.00000   0.00000   2.08519
    R3        2.08301   0.00000   0.00000   0.00001   0.00001   2.08302
    R4        2.08301   0.00000   0.00000   0.00001   0.00001   2.08302
    R5        2.77077  -0.00000   0.00000  -0.00000  -0.00000   2.77077
    R6        2.09850   0.00000   0.00000   0.00000   0.00000   2.09850
    R7        2.09850   0.00000   0.00000   0.00000   0.00000   2.09850
    R8        1.86799  -0.00001   0.00000  -0.00003  -0.00003   1.86796
    A1        1.93159   0.00000   0.00000   0.00000   0.00000   1.93159
    A2        1.92409   0.00000   0.00000   0.00001   0.00001   1.92411
    A3        1.92409   0.00000   0.00000   0.00001   0.00001   1.92411
    A4        1.89754  -0.00000   0.00000  -0.00001  -0.00001   1.89753
    A5        1.89754  -0.00000   0.00000  -0.00001  -0.00001   1.89753
    A6        1.88809  -0.00000   0.00000  -0.00001  -0.00001   1.88809
    A7        1.86265  -0.00000   0.00000  -0.00001  -0.00001   1.86265
    A8        1.92530   0.00000   0.00000   0.00000   0.00000   1.92530
    A9        1.92530   0.00000   0.00000   0.00000   0.00000   1.92530
   A10        1.93655   0.00000   0.00000  -0.00000  -0.00000   1.93654
   A11        1.93655   0.00000   0.00000  -0.00000  -0.00000   1.93654
   A12        1.87817   0.00000   0.00000   0.00001   0.00001   1.87817
   A13        1.90171   0.00000   0.00000   0.00002   0.00002   1.90172
    D1        3.14159   0.00000   0.00000  -0.00000   0.00000   3.14159
    D2       -1.03630  -0.00000   0.00000  -0.00001  -0.00001  -1.03631
    D3        1.03630   0.00000   0.00000   0.00001   0.00001   1.03631
    D4       -1.04168  -0.00000   0.00000  -0.00000  -0.00000  -1.04169
    D5        1.06361  -0.00000   0.00000  -0.00001  -0.00001   1.06360
    D6        3.13621   0.00000   0.00000   0.00000   0.00000   3.13621
    D7        1.04168   0.00000   0.00000   0.00000   0.00000   1.04169
    D8       -3.13621  -0.00000   0.00000  -0.00000  -0.00000  -3.13621
    D9       -1.06361   0.00000   0.00000   0.00001   0.00001  -1.06360
   D10        3.14159  -0.00000   0.00000  -0.00000   0.00000   3.14159
   D11        1.04351   0.00000   0.00000   0.00000   0.00000   1.04352
   D12       -1.04351  -0.00000   0.00000  -0.00000  -0.00000  -1.04352
         Item               Value     Threshold  Converged?
 Maximum Force            0.000013     0.000015     YES
 RMS     Force            0.000002     0.000010     YES
 Maximum Displacement     0.000028     0.000060     YES
 RMS     Displacement     0.000008     0.000040     YES
 Predicted change in Energy=-2.821205D-10
 Optimization completed.
    -- Stationary point found.
                           ----------------------------
                           !   Optimized Parameters   !
                           ! (Angstroms and Degrees)  !
 --------------------------                            --------------------------
 ! Name  Definition              Value          Derivative Info.                !
 --------------------------------------------------------------------------------
 ! R1    R(1,2)                  1.5219         -DE/DX =    0.0                 !
 ! R2    R(1,7)                  1.1034         -DE/DX =    0.0                 !
 ! R3    R(1,8)                  1.1023         -DE/DX =    0.0                 !
 ! R4    R(1,9)                  1.1023         -DE/DX =    0.0                 !
 ! R5    R(2,3)                  1.4662         -DE/DX =    0.0                 !
 ! R6    R(2,5)                  1.1105         -DE/DX =    0.0                 !
 ! R7    R(2,6)                  1.1105         -DE/DX =    0.0                 !
 ! R8    R(3,4)                  0.9885         -DE/DX =    0.0                 !
 ! A1    A(2,1,7)              110.6718         -DE/DX =    0.0                 !
 ! A2    A(2,1,8)              110.2423         -DE/DX =    0.0                 !
 ! A3    A(2,1,9)              110.2423         -DE/DX =    0.0                 !
 ! A4    A(7,1,8)              108.7211         -DE/DX =    0.0                 !
 ! A5    A(7,1,9)              108.7211         -DE/DX =    0.0                 !
 ! A6    A(8,1,9)              108.1799         -DE/DX =    0.0                 !
 ! A7    A(1,2,3)              106.7221         -DE/DX =    0.0                 !
 ! A8    A(1,2,5)              110.3116         -DE/DX =    0.0                 !
 ! A9    A(1,2,6)              110.3116         -DE/DX =    0.0                 !
 ! A10   A(3,2,5)              110.9559         -DE/DX =    0.0                 !
 ! A11   A(3,2,6)              110.9559         -DE/DX =    0.0                 !
 ! A12   A(5,2,6)              107.611          -DE/DX =    0.0                 !
 ! A13   A(2,3,4)              108.9598         -DE/DX =    0.0                 !
 ! D1    D(7,1,2,3)            180.0            -DE/DX =    0.0                 !
 ! D2    D(7,1,2,5)            -59.3757         -DE/DX =    0.0                 !
 ! D3    D(7,1,2,6)             59.3757         -DE/DX =    0.0                 !
 ! D4    D(8,1,2,3)            -59.6841         -DE/DX =    0.0                 !
 ! D5    D(8,1,2,5)             60.9403         -DE/DX =    0.0                 !
 ! D6    D(8,1,2,6)            179.6916         -DE/DX =    0.0                 !
 ! D7    D(9,1,2,3)             59.6841         -DE/DX =    0.0                 !
 ! D8    D(9,1,2,5)           -179.6916         -DE/DX =    0.0                 !
 ! D9    D(9,1,2,6)            -60.9403         -DE/DX =    0.0                 !
 ! D10   D(1,2,3,4)            180.0            -DE/DX =    0.0                 !
 ! D11   D(5,2,3,4)             59.7889         -DE/DX =    0.0                 !
 ! D12   D(6,2,3,4)            -59.7889         -DE/DX =    0.0                 !
 --------------------------------------------------------------------------------
 GradGradGradGradGradGradGradGradGradGradGradGradGradGradGradGradGradGrad

 Leave Link  103 at Tue Aug 20 09:48:47 2024, MaxMem=   104857600 cpu:               0.0 elap:               0.0
 (Enter /apps20/sw/gaussian/G16RevB.01/pgi/17.5/g16/l9999.exe)

 ----------------------------------------------------------------------

 Electric dipole moment (input orientation):
 (Debye = 10**-18 statcoulomb cm , SI units = C m)
                  (au)            (Debye)         (10**-30 SI)
   Tot        0.709984D+00      0.180460D+01      0.601949D+01
   x          0.199824D-01      0.507903D-01      0.169418D+00
   y          0.709702D+00      0.180388D+01      0.601711D+01
   z          0.000000D+00      0.000000D+00      0.000000D+00

 Dipole polarizability, Alpha (input orientation).
 (esu units = cm**3 , SI units = C**2 m**2 J**-1)
 Alpha(0;0):
               (au)            (10**-24 esu)      (10**-40 SI)
   iso        0.268346D+02      0.397648D+01      0.442443D+01
   aniso      0.672103D+01      0.995954D+00      0.110815D+01
   xx         0.308726D+02      0.457484D+01      0.509020D+01
   yx        -0.753660D+00     -0.111681D+00     -0.124262D+00
   yy         0.263192D+02      0.390011D+01      0.433945D+01
   zx         0.000000D+00      0.000000D+00      0.000000D+00
   zy         0.000000D+00      0.000000D+00      0.000000D+00
   zz         0.233121D+02      0.345450D+01      0.384365D+01

 ----------------------------------------------------------------------

 Dipole orientation:
     6         20.07312056        -17.36570545         16.90163155
     6         17.81496849        -17.30212473         18.68152886
     8         15.54739033        -17.23827860         17.09056257
     1         14.03669201        -17.19574325         18.18845725
     1         17.81554395        -18.99633837         19.91981353
     1         17.91087231        -15.61062756         19.91981353
     1         21.85800588        -17.41596084         17.97850290
     1         19.98123174        -19.05090003         15.68072114
     1         20.07619911        -15.67801033         15.68072114

 Electric dipole moment (dipole orientation):
 (Debye = 10**-18 statcoulomb cm , SI units = C m)
                  (au)            (Debye)         (10**-30 SI)
   Tot        0.709984D+00      0.180460D+01      0.601949D+01
   x          0.000000D+00      0.000000D+00      0.000000D+00
   y          0.000000D+00      0.000000D+00      0.000000D+00
   z          0.709984D+00      0.180460D+01      0.601949D+01

 Dipole polarizability, Alpha (dipole orientation).
 (esu units = cm**3 , SI units = C**2 m**2 J**-1)
 Alpha(0;0):
               (au)            (10**-24 esu)      (10**-40 SI)
   iso        0.268346D+02      0.397648D+01      0.442443D+01
   aniso      0.672103D+01      0.995954D+00      0.110815D+01
   xx         0.309054D+02      0.457970D+01      0.509560D+01
   yx        -0.213796D+00     -0.316813D-01     -0.352502D-01
   yy         0.233181D+02      0.345539D+01      0.384464D+01
   zx        -0.624115D+00     -0.924843D-01     -0.102903D+00
   zy         0.175726D-01      0.260400D-02      0.289734D-02
   zz         0.262804D+02      0.389436D+01      0.433306D+01

 ----------------------------------------------------------------------
 1\1\GINC-CN1053\Freq\RPBEPBE\6-31G\C2H6O1\SCARF816\20-Aug-2024\0\\#P G
 eom=AllCheck Guess=TCheck SCRF=Check GenChk RPBEPBE/6-31G Freq\\Gaussi
 an input prepared by ASE\\0,1\C,11.1240871826,8.6342920099,8.886933\C,
 9.9556337456,9.609445452,8.886933\O,8.7319877533,8.801661783,8.886933\
 H,7.9489122966,9.4049212103,8.886933\H,9.9996036524,10.2637391476,9.78
 31085183\H,9.9996036524,10.2637391476,7.9907574817\H,12.0846463672,9.1
 773280373,8.886933\H,11.0824051749,7.9891316061,9.7797148541\H,11.0824
 051749,7.9891316061,7.9941511459\\Version=ES64L-G16RevB.01\State=1-A'\
 HF=-154.7909898\RMSD=1.134e-10\RMSF=3.750e-06\ZeroPoint=0.0781099\Ther
 mal=0.0824445\Dipole=0.0199824,0.7097024,0.\DipoleDeriv=-0.0746015,0.0
 724956,0.,0.0841446,0.0165513,0.,0.,0.,0.054059,0.7297588,0.1856188,0.
 ,0.1429087,0.3683741,0.,0.,0.,0.4544042,-0.7129346,-0.2768602,0.,-0.29
 72487,-0.2774451,0.,0.,0.,-0.5870971,0.1093437,0.1234227,0.,0.1814888,
 0.1014624,0.,0.,0.,0.3923699,-0.0574936,-0.0193022,-0.0043418,-0.03823
 25,-0.0992372,-0.1313452,-0.0050058,-0.1482245,-0.1414745,-0.0574936,-
 0.0193022,0.0043418,-0.0382325,-0.0992372,0.1313452,0.0050058,0.148224
 5,-0.1414745,-0.1029566,-0.0654646,0.,-0.104601,0.0075722,0.,0.,0.,0.0
 883751,0.0831886,-0.0003039,0.0183922,0.0348863,-0.0090203,0.0957112,0
 .0002655,0.1091292,-0.059581,0.0831886,-0.0003039,-0.0183922,0.0348863
 ,-0.0090203,-0.0957112,-0.0002655,-0.1091292,-0.059581\Polar=30.872573
 6,-0.7536596,26.3192157,0.,0.,23.312108\Quadrupole=1.4086365,-0.659215
 4,-0.7494211,-1.977772,0.,0.\PG=CS [SG(C2H2O1),X(H4)]\NImag=0\\0.51135
 363,0.04577897,0.52443556,0.,0.,0.55771983,-0.13382573,0.07150614,0.,0
 .42256209,0.05995044,-0.13854581,0.,-0.03796042,0.50782009,0.,0.,-0.07
 988321,0.,0.,0.55798282,-0.04190801,-0.01816727,0.,-0.14835884,-0.0726
 4427,0.,0.49694641,0.01577144,0.01260642,0.,-0.01973124,-0.11051852,0.
 ,-0.10929225,0.31512418,0.,0.,0.00375428,0.,0.,-0.05626444,0.,0.,0.039
 46610,-0.00650561,-0.00737330,0.,-0.02734010,0.02939439,0.,-0.27883952
 ,0.16283256,0.,0.30996157,-0.00159392,-0.00148150,0.,-0.03126588,0.003
 29874,0.,0.22208831,-0.18854688,0.,-0.18644360,0.18451059,0.,0.,0.0000
 4830,0.,0.,-0.00188117,0.,0.,-0.00222186,0.,0.,0.00298109,-0.00023837,
 0.01714411,0.02235275,-0.04549536,0.00091392,-0.00158310,-0.01428775,-
 0.02682260,-0.02163259,0.00143128,-0.00065298,-0.00077520,0.05752341,0
 .00196296,-0.01220050,-0.01822686,-0.00007892,-0.12030863,-0.10335538,
 -0.01192751,-0.01460792,-0.01328807,0.00049532,0.00052933,0.00041030,0
 .00581080,0.13739142,-0.00125930,0.00163896,-0.00002032,-0.00114662,-0
 .10522254,-0.20873947,-0.00257969,-0.00008743,0.00720821,-0.00086756,0
 .00014562,0.00001354,0.00398538,0.11881724,0.22211878,-0.00023837,0.01
 714411,-0.02235275,-0.04549536,0.00091392,0.00158310,-0.01428775,-0.02
 682260,0.02163259,0.00143128,-0.00065298,0.00077520,0.00352801,0.00134
 240,0.00102156,0.05752341,0.00196296,-0.01220050,0.01822686,-0.0000789
 2,-0.12030863,0.10335538,-0.01192751,-0.01460792,0.01328807,0.00049532
 ,0.00052933,-0.00041030,0.00134240,0.00992549,-0.01555468,0.00581080,0
 .13739142,0.00125930,-0.00163896,-0.00002032,0.00114662,0.10522254,-0.
 20873947,0.00257969,0.00008743,0.00720821,0.00086756,-0.00014562,0.000
 01354,-0.00102156,0.01555468,-0.02328927,-0.00398538,-0.11881724,0.222
 11878,-0.23705961,-0.10836888,0.,-0.01917788,-0.01793853,0.,-0.0037541
 1,0.00511477,0.,-0.00141679,-0.00063957,0.,0.00067978,0.00029847,0.000
 77138,0.00067978,0.00029847,-0.00077138,0.26201650,-0.11074362,-0.1097
 1919,0.,0.01901685,0.01057879,0.,0.00422638,-0.00282362,0.,0.00160272,
 0.00098270,0.,-0.00080883,0.00055845,-0.00025760,-0.00080883,0.0005584
 5,0.00025760,0.12005048,0.11791374,0.,0.,-0.04467794,0.,0.,-0.00215092
 ,0.,0.,0.00047473,0.,0.,0.00090156,-0.00015168,-0.00000490,-0.00012536
 ,0.00015168,0.00000490,-0.00012536,0.,0.,0.04544093,-0.04578897,-0.008
 83195,0.01091484,-0.00143441,0.01868528,-0.02307271,0.00224478,-0.0005
 2504,0.00078022,0.00063894,-0.00041968,0.00015426,0.00080370,-0.001110
 96,0.00011899,-0.00394472,0.00320745,0.00004415,-0.00098384,-0.0162675
 8,0.02391806,0.04869444,-0.00654461,-0.13144724,0.11927793,-0.00070380
 ,-0.01600802,0.02088446,-0.00117794,0.00168713,-0.00147829,-0.00050170
 ,0.00008885,-0.00011875,-0.00084706,0.00045077,-0.00011736,0.00392024,
 -0.00173840,-0.00063778,0.00059240,-0.00902466,0.01275870,0.00440575,0
 .14570077,0.00951486,0.12097159,-0.21846030,0.00167042,-0.00102409,-0.
 00016207,-0.00058430,-0.00023326,0.00018739,0.00003099,-0.00046356,0.0
 0007251,-0.00064949,-0.00008596,0.00119572,0.00052450,-0.00017895,0.00
 163818,-0.00142558,-0.00204282,0.00013119,-0.01096960,-0.13375594,0.23
 600192,-0.04578897,-0.00883195,-0.01091484,-0.00143441,0.01868528,0.02
 307271,0.00224478,-0.00052504,-0.00078022,0.00063894,-0.00041968,-0.00
 015426,-0.00394472,0.00320745,-0.00004415,0.00080370,-0.00111096,-0.00
 011899,-0.00098384,-0.01626758,-0.02391806,-0.00022991,0.00085672,0.00
 188821,0.04869444,-0.00654461,-0.13144724,-0.11927793,-0.00070380,-0.0
 1600802,-0.02088446,-0.00117794,0.00168713,0.00147829,-0.00050170,0.00
 008885,0.00011875,0.00392024,-0.00173840,0.00063778,-0.00084706,0.0004
 5077,0.00011736,0.00059240,-0.00902466,-0.01275870,0.00085672,0.010290
 80,0.01681299,0.00440575,0.14570077,-0.00951486,-0.12097159,-0.2184603
 0,-0.00167042,0.00102409,-0.00016207,0.00058430,0.00023326,0.00018739,
 -0.00003099,0.00046356,0.00007251,-0.00052450,0.00017895,0.00163818,0.
 00064949,0.00008596,0.00119572,0.00142558,0.00204282,0.00013119,-0.001
 88821,-0.01681299,-0.02060453,0.01096960,0.13375594,0.23600192\\0.0000
 0546,-0.00000299,0.,-0.00000166,-0.00000086,0.,0.00000877,-0.00000852,
 0.,-0.00000921,0.00000926,0.,0.00000063,0.00000032,-0.00000063,0.00000
 063,0.00000032,0.00000063,-0.00000134,-0.00000048,0.,-0.00000164,0.000
 00147,-0.00000143,-0.00000164,0.00000147,0.00000143\\\@


 TO DRY ONE'S EYES AND LAUGH AT A FALL
 AND BAFFLED, GET UP AND BEGIN AGAIN.
           R. BROWNING
 Job cpu time:       0 days  0 hours  0 minutes 13.7 seconds.
 Elapsed time:       0 days  0 hours  0 minutes 13.6 seconds.
 File lengths (MBytes):  RWF=      5 Int=      0 D2E=      0 Chk=      1 Scr=      1
 Normal termination of Gaussian 16 at Tue Aug 20 09:48:47 2024.
